/*--------------------------------*- C++ -*----------------------------------*\
| =========                 |                                                 |
| \\      /  F ield         | OpenFOAM: The Open Source CFD Toolbox           |
|  \\    /   O peration     | Version:  v2012                                 |
|   \\  /    A nd           | Website:  www.openfoam.com                      |
|    \\/     M anipulation  |                                                 |
\*---------------------------------------------------------------------------*/
FoamFile
{
    version     2.0;
    format      ascii;
    class       volScalarField;
    location    "67";
    object      p;
}
// * * * * * * * * * * * * * * * * * * * * * * * * * * * * * * * * * * * * * //

dimensions      [0 2 -2 0 0 0 0];


internalField   nonuniform List<scalar> 
1600
(
0.238444
0.236473
0.235513
0.234883
0.234202
0.233463
0.232706
0.231953
0.23122
0.230536
0.229947
0.229526
0.229395
0.229763
0.231001
0.233746
0.239104
0.24893
0.266389
0.295622
0.237935
0.236435
0.235503
0.234861
0.234184
0.23345
0.232696
0.231944
0.231211
0.230526
0.229933
0.229504
0.229359
0.229703
0.230897
0.233565
0.238788
0.248382
0.265429
0.293506
0.237584
0.236478
0.235556
0.23488
0.234196
0.233461
0.232704
0.231948
0.23121
0.230519
0.229915
0.229468
0.229291
0.229579
0.230673
0.233164
0.238078
0.247124
0.263166
0.289181
0.237309
0.236457
0.235562
0.234861
0.234176
0.233445
0.232688
0.231931
0.23119
0.230492
0.229876
0.229406
0.229186
0.229397
0.230352
0.2326
0.237082
0.245365
0.260031
0.283519
0.237095
0.23642
0.235575
0.234861
0.234174
0.233445
0.232689
0.231928
0.231181
0.230473
0.22984
0.229339
0.229064
0.229175
0.229955
0.231892
0.235829
0.243159
0.256156
0.276782
0.236931
0.236377
0.23558
0.234857
0.234164
0.233436
0.232678
0.231913
0.23116
0.230441
0.229787
0.229249
0.228909
0.228904
0.229476
0.231045
0.234337
0.240548
0.25163
0.269121
0.236807
0.236337
0.235582
0.234854
0.234157
0.233429
0.232671
0.231902
0.231142
0.23041
0.229734
0.229154
0.22874
0.228602
0.228937
0.230088
0.232647
0.237593
0.246545
0.260654
0.236719
0.236303
0.235582
0.234851
0.234149
0.233421
0.232661
0.231887
0.231119
0.230373
0.229671
0.229046
0.22855
0.228266
0.228342
0.229033
0.230786
0.234342
0.240973
0.251461
0.236661
0.236279
0.23558
0.234848
0.234142
0.233413
0.232651
0.231872
0.231096
0.230335
0.229606
0.228933
0.22835
0.227911
0.227709
0.227907
0.228795
0.23086
0.234995
0.241619
0.236633
0.236265
0.235577
0.234844
0.234135
0.233405
0.23264
0.231856
0.231071
0.230294
0.229538
0.228815
0.228142
0.227541
0.227049
0.226733
0.226714
0.227205
0.22869
0.231196
0.236632
0.236264
0.235574
0.23484
0.23413
0.233397
0.232629
0.23184
0.231046
0.230253
0.229469
0.228695
0.22793
0.227165
0.226379
0.225537
0.224585
0.223446
0.222147
0.220268
0.236658
0.236274
0.235571
0.234835
0.234125
0.233389
0.232617
0.231823
0.23102
0.230213
0.2294
0.228576
0.227721
0.226793
0.225714
0.224346
0.222455
0.219656
0.215461
0.208921
0.236713
0.236295
0.235568
0.234831
0.234121
0.233382
0.232606
0.231807
0.230996
0.230173
0.229333
0.228461
0.227518
0.226432
0.225068
0.223186
0.220369
0.21591
0.208739
0.197266
0.236799
0.236325
0.235563
0.234826
0.234117
0.233376
0.232595
0.231792
0.230973
0.230136
0.229272
0.228354
0.227329
0.226094
0.22446
0.222088
0.21838
0.212294
0.20211
0.185452
0.236921
0.236362
0.235557
0.234822
0.234115
0.233369
0.232584
0.231776
0.23095
0.2301
0.229213
0.228254
0.227153
0.225781
0.223898
0.221072
0.216529
0.208892
0.195716
0.173674
0.237083
0.236402
0.235546
0.234819
0.234115
0.233366
0.232578
0.231767
0.230935
0.230074
0.229167
0.228171
0.227004
0.22551
0.223406
0.220174
0.214876
0.205804
0.189734
0.162211
0.237295
0.236436
0.23553
0.234814
0.23411
0.233355
0.232564
0.23175
0.230913
0.230044
0.22912
0.228093
0.226871
0.225274
0.222982
0.219403
0.213452
0.203113
0.184355
0.15143
0.237569
0.236455
0.23552
0.234827
0.234124
0.233363
0.232569
0.231752
0.23091
0.230032
0.229094
0.228043
0.226776
0.225098
0.222656
0.218799
0.21232
0.200934
0.179827
0.141872
0.237919
0.23641
0.235464
0.234804
0.234107
0.233346
0.232553
0.231737
0.230895
0.230013
0.229067
0.228
0.226701
0.224964
0.222411
0.218352
0.211489
0.199332
0.176393
0.134252
0.238427
0.236446
0.235473
0.234824
0.234122
0.233356
0.23256
0.231741
0.230896
0.230012
0.229061
0.227985
0.226671
0.224907
0.222296
0.218117
0.211029
0.198427
0.174414
0.129765
0.350194
0.396512
0.417187
0.425205
0.429611
0.432154
0.432985
0.432461
0.43104
0.428994
0.426514
0.423705
0.420677
0.417485
0.414198
0.410836
0.407443
0.404016
0.400585
0.397138
0.341298
0.38128
0.40072
0.408939
0.413635
0.416468
0.417586
0.417322
0.416123
0.414268
0.411954
0.40929
0.40639
0.403312
0.400126
0.396853
0.39354
0.390185
0.386819
0.383431
0.33098
0.366278
0.385515
0.394575
0.399798
0.402919
0.404211
0.404032
0.402841
0.40094
0.398541
0.395765
0.392734
0.389512
0.386172
0.38274
0.379261
0.375737
0.3722
0.368639
0.320122
0.350905
0.368764
0.377571
0.382509
0.38532
0.386368
0.386005
0.384665
0.382643
0.380148
0.377298
0.374208
0.370942
0.367567
0.364108
0.360609
0.357074
0.353529
0.349965
0.308622
0.335156
0.351242
0.359612
0.364347
0.367009
0.367988
0.367603
0.36625
0.364208
0.361678
0.358784
0.355637
0.352298
0.348831
0.345268
0.341655
0.337997
0.334322
0.330621
0.296443
0.318982
0.333028
0.340634
0.344916
0.347193
0.347866
0.347239
0.345677
0.343449
0.34075
0.337706
0.334425
0.330965
0.327389
0.323732
0.320033
0.316299
0.312554
0.308789
0.283545
0.302226
0.314008
0.320537
0.324158
0.325926
0.326222
0.325332
0.323576
0.321197
0.318378
0.315235
0.311864
0.308318
0.304658
0.300914
0.297124
0.293297
0.289451
0.28558
0.269857
0.28471
0.294024
0.299191
0.301934
0.303038
0.302835
0.301577
0.299538
0.296929
0.293915
0.290606
0.287083
0.283401
0.279613
0.27575
0.271847
0.267912
0.263962
0.259993
0.255311
0.266253
0.272894
0.276423
0.278058
0.278331
0.277501
0.275782
0.273396
0.270518
0.26729
0.263808
0.260139
0.256329
0.252427
0.248461
0.244457
0.240426
0.23638
0.232318
0.239821
0.246659
0.250392
0.252008
0.252295
0.251554
0.249961
0.247675
0.244863
0.241658
0.23817
0.234476
0.230625
0.226656
0.22261
0.218511
0.214381
0.210231
0.206069
0.201897
0.223292
0.225709
0.226256
0.225676
0.224365
0.222415
0.219908
0.216944
0.213625
0.210037
0.206254
0.202326
0.198285
0.194159
0.189979
0.185764
0.181531
0.177285
0.173034
0.168778
0.20561
0.203147
0.200165
0.19709
0.193918
0.190548
0.186967
0.183202
0.17928
0.175233
0.171091
0.166869
0.16258
0.158242
0.153875
0.149493
0.145107
0.140722
0.136343
0.131973
0.186641
0.178666
0.171728
0.165832
0.160528
0.155521
0.150703
0.146026
0.14144
0.136911
0.13242
0.127938
0.123456
0.118972
0.114491
0.110016
0.10555
0.101092
0.0966411
0.0921976
0.166226
0.151889
0.14045
0.131379
0.123655
0.116762
0.110499
0.104721
0.0992829
0.0940793
0.089037
0.0840947
0.0792226
0.0744093
0.0696497
0.0649416
0.0602827
0.0556697
0.0510991
0.0465688
0.144163
0.122326
0.105702
0.0930794
0.0826812
0.0737399
0.0659881
0.0591943
0.0531064
0.047502
0.0422139
0.0371246
0.0321656
0.0272962
0.0224895
0.0177299
0.0130059
0.0083097
0.00363431
-0.00102268
0.120218
0.0893392
0.0666303
0.049986
0.0364773
0.0249498
0.0150663
0.00651447
-0.00101001
-0.00779668
-0.0140594
-0.0199378
-0.0255206
-0.0308689
-0.0360251
-0.0410182
-0.0458697
-0.0505977
-0.0552182
-0.0597441
0.0940748
0.0520643
0.0222795
0.00156905
-0.0145941
-0.0278573
-0.0386721
-0.0475836
-0.0551779
-0.0618942
-0.0680517
-0.0738416
-0.079387
-0.0847709
-0.0900447
-0.0952388
-0.100369
-0.105447
-0.110477
-0.115464
0.0653337
0.00897592
-0.0300215
-0.0568184
-0.078302
-0.0963788
-0.111204
-0.123258
-0.133305
-0.141912
-0.149464
-0.15622
-0.162364
-0.168032
-0.173321
-0.178298
-0.18301
-0.187495
-0.191784
-0.195903
0.0337243
-0.0399326
-0.0853183
-0.112402
-0.133078
-0.150401
-0.164556
-0.176008
-0.185532
-0.193817
-0.201265
-0.208131
-0.214593
-0.220774
-0.226754
-0.232579
-0.238275
-0.243854
-0.249324
-0.254687
-0.00292839
-0.112478
-0.180553
-0.220621
-0.25032
-0.27446
-0.293584
-0.308491
-0.320327
-0.329971
-0.337986
-0.344753
-0.350555
-0.355604
-0.360055
-0.364023
-0.367594
-0.370837
-0.373806
-0.376547
0.393703
0.390265
0.386847
0.383418
0.379977
0.376465
0.372873
0.369142
0.36523
0.361055
0.356556
0.351626
0.34613
0.339853
0.332467
0.323476
0.312105
0.297136
0.276467
0.246228
0.380049
0.376656
0.373275
0.369874
0.366455
0.362964
0.359387
0.355658
0.351729
0.347513
0.342938
0.337885
0.332201
0.325651
0.31788
0.308364
0.296286
0.280384
0.258542
0.226929
0.365081
0.361509
0.357943
0.354355
0.350746
0.34707
0.343309
0.339402
0.335308
0.330941
0.326224
0.321033
0.315207
0.308505
0.300565
0.29086
0.278584
0.262513
0.240697
0.20977
0.346401
0.342821
0.339242
0.335636
0.332007
0.328314
0.324541
0.320631
0.31654
0.312178
0.307459
0.30225
0.296378
0.289594
0.281531
0.271666
0.259217
0.243034
0.221389
0.191472
0.326912
0.323182
0.319444
0.315678
0.311892
0.308049
0.30414
0.30011
0.295914
0.291462
0.286665
0.281383
0.275441
0.268586
0.26046
0.25056
0.238152
0.22219
0.201202
0.172945
0.305018
0.301227
0.29743
0.29361
0.289775
0.285897
0.281965
0.277926
0.273733
0.269296
0.264518
0.259256
0.253331
0.246495
0.238403
0.228582
0.216359
0.200814
0.180731
0.154379
0.281698
0.277793
0.27388
0.269949
0.266008
0.262037
0.258024
0.253921
0.24968
0.245212
0.240417
0.235156
0.229254
0.222474
0.214499
0.204896
0.19307
0.178232
0.159408
0.135291
0.256014
0.252022
0.248029
0.244029
0.240032
0.236023
0.231988
0.227883
0.223657
0.219224
0.214485
0.209304
0.203517
0.196906
0.189183
0.179967
0.168746
0.154861
0.137553
0.115856
0.228247
0.224167
0.220089
0.216016
0.211955
0.207895
0.203825
0.199705
0.195483
0.191079
0.1864
0.181322
0.175696
0.169331
0.16198
0.153323
0.142932
0.130277
0.114778
0.0957283
0.197722
0.193549
0.189389
0.185248
0.181137
0.17705
0.172976
0.168878
0.164711
0.1604
0.155859
0.150979
0.145633
0.13966
0.132858
0.124969
0.115654
0.104502
0.0910778
0.0748781
0.164523
0.160276
0.15605
0.151854
0.1477
0.143588
0.139511
0.135438
0.131329
0.127121
0.122743
0.118105
0.113108
0.10763
0.101524
0.0945985
0.0866064
0.0772454
0.0661951
0.0530975
0.127616
0.123283
0.118988
0.114746
0.110573
0.106475
0.102448
0.0984717
0.0945112
0.0905168
0.0864302
0.0821845
0.0777092
0.0729246
0.0677379
0.0620307
0.0556479
0.0483905
0.0400308
0.0303211
0.0877661
0.0833572
0.0789879
0.0746792
0.070452
0.0663212
0.0622922
0.0583568
0.0544946
0.0506744
0.0468612
0.0430193
0.0391185
0.0351318
0.031033
0.0267848
0.0223252
0.0175494
0.0122898
0.00636442
0.0420821
0.0376491
0.0332883
0.0290237
0.0248812
0.0208829
0.0170427
0.013363
0.00983569
0.00644563
0.00317773
2.38985e-05
-0.00300945
-0.00589848
-0.00860232
-0.011072
-0.013269
-0.0151958
-0.0169619
-0.0187021
-0.0056583
-0.010259
-0.0148018
-0.0192537
-0.0235772
-0.0277336
-0.0316904
-0.035421
-0.0389069
-0.0421304
-0.0450687
-0.0476831
-0.0499093
-0.0516522
-0.0527835
-0.0531535
-0.0526153
-0.05108
-0.0486335
-0.0454413
-0.0641813
-0.0685259
-0.0727615
-0.0768595
-0.0807822
-0.0844865
-0.08793
-0.0910724
-0.0938762
-0.0963013
-0.0982957
-0.0997839
-0.100654
-0.100746
-0.0998502
-0.0977106
-0.0940601
-0.0886913
-0.0816325
-0.073084
-0.120404
-0.125284
-0.130079
-0.134747
-0.139234
-0.143476
-0.147401
-0.150933
-0.153992
-0.156488
-0.15831
-0.159314
-0.159305
-0.158022
-0.155132
-0.150231
-0.142887
-0.132737
-0.119739
-0.104273
-0.199872
-0.203699
-0.207379
-0.210888
-0.214184
-0.217206
-0.21988
-0.222114
-0.223805
-0.224828
-0.225024
-0.22419
-0.222053
-0.218253
-0.212331
-0.203733
-0.191854
-0.176161
-0.156507
-0.133657
-0.25994
-0.265072
-0.27006
-0.274863
-0.279421
-0.283653
-0.287455
-0.290705
-0.293258
-0.294939
-0.295532
-0.294762
-0.292267
-0.287579
-0.280092
-0.269059
-0.253618
-0.232899
-0.206288
-0.174426
-0.379097
-0.381477
-0.383694
-0.385731
-0.387541
-0.389049
-0.390149
-0.390699
-0.390518
-0.389379
-0.386994
-0.382987
-0.376874
-0.368029
-0.355666
-0.338836
-0.316475
-0.287539
-0.251303
-0.20723
0.181926
0.109184
0.0618134
0.0347266
0.0186546
0.00895958
0.00357879
0.00105139
0.00010421
-0.000148597
-0.000158643
-0.000111526
-8.86416e-05
-0.00012308
-0.000200251
-0.000277994
-0.000308657
-0.00027588
-0.000218896
-0.000409506
0.168682
0.103037
0.0586002
0.0326876
0.0173036
0.00808239
0.00302451
0.000704498
-0.000105943
-0.000270461
-0.000224453
-0.000141846
-9.77937e-05
-0.000122136
-0.000198238
-0.000281857
-0.000323621
-0.000304319
-0.000258474
-0.000353435
0.15755
0.0992268
0.0573707
0.0321745
0.0171814
0.00823856
0.00336102
0.00115756
0.000411184
0.000268072
0.000307165
0.000367099
0.000378754
0.000314384
0.000191913
5.70805e-05
-3.9252e-05
-7.46443e-05
-7.15477e-05
-0.000118626
0.144347
0.0923857
0.0533835
0.0293605
0.015158
0.00683464
0.00243172
0.000581926
8.25869e-05
9.76302e-05
0.000233023
0.000350533
0.000393125
0.00033867
0.00020874
5.28313e-05
-7.49903e-05
-0.000147224
-0.000172863
-0.000178107
0.130501
0.0846104
0.0490467
0.0266913
0.0135343
0.00596966
0.00211736
0.00064903
0.000387303
0.000528226
0.00071796
0.00084936
0.000880788
0.000796758
0.000623155
0.000413228
0.000223999
8.72548e-05
4.68308e-06
-6.15427e-06
0.11606
0.0757586
0.0437946
0.0232912
0.0112418
0.00446772
0.00120381
0.000157311
0.000166054
0.000457911
0.000723996
0.000891455
0.000934308
0.000843324
0.000648506
0.00040716
0.000179281
7.75702e-07
-0.000116593
-0.000118414
0.100932
0.065962
0.037814
0.019447
0.00869073
0.00284975
0.000302528
-0.000221954
0.000120364
0.000596465
0.000955498
0.00116723
0.0012251
0.00112824
0.000912705
0.000640827
0.000375858
0.000157152
3.82587e-06
-8.79878e-06
0.085247
0.0554088
0.0312199
0.0151865
0.00582942
0.000983559
-0.000794092
-0.000760287
-7.35783e-05
0.000580224
0.0010214
0.00126878
0.00133622
0.00123124
0.000996071
0.000698405
0.000404459
0.000156125
-2.22118e-05
-4.36099e-05
0.0688913
0.0441233
0.0240432
0.0105206
0.00266941
-0.00109988
-0.00202265
-0.00135813
-0.000282051
0.00057411
0.00111432
0.00141184
0.00150158
0.00139987
0.00115628
0.000844312
0.000533035
0.000265974
7.04002e-05
3.51001e-05
0.0518819
0.0322142
0.01639
0.00551875
-0.0007445
-0.00337078
-0.00336375
-0.00200726
-0.000513548
0.000549986
0.00118711
0.00153154
0.00163937
0.00153598
0.00127918
0.000949223
0.000618217
0.000330833
0.000115354
5.69704e-05
0.0341847
0.0197596
0.00834759
0.000232264
-0.00438859
-0.00581606
-0.00480436
-0.00269434
-0.000755021
0.000523436
0.00126099
0.001656
0.00178468
0.00168144
0.00141338
0.00106781
0.000719611
0.000413922
0.000178878
9.41881e-05
0.015828
0.00687939
3.41863e-05
-0.00526419
-0.00822132
-0.00840917
-0.00632002
-0.00339537
-0.000986804
0.000509986
0.00135026
0.00179996
0.00195286
0.00185177
0.00157346
0.00121245
0.000846094
0.000519455
0.000259265
0.000137383
-0.00316176
-0.00628688
-0.00841536
-0.0108854
-0.0121976
-0.0111257
-0.00789467
-0.00410825
-0.00122545
0.000477115
0.00141095
0.00191087
0.00208503
0.00198428
0.00169561
0.00132015
0.000936637
0.000589227
0.000303017
0.000142716
-0.0226419
-0.0195142
-0.0168143
-0.0165111
-0.0162458
-0.0139148
-0.00947404
-0.00477569
-0.00141562
0.000481872
0.00150693
0.00206116
0.00226237
0.00216884
0.00187762
0.00149517
0.00109986
0.000733627
0.000418907
0.000210198
-0.0426014
-0.0326061
-0.0249949
-0.0220331
-0.0203123
-0.016767
-0.0110754
-0.00544883
-0.00164766
0.000402725
0.00149423
0.00209007
0.00231235
0.00222643
0.00193901
0.00155949
0.00116292
0.000787112
0.000451581
0.000201015
-0.0625354
-0.0450625
-0.0326177
-0.0271949
-0.0241765
-0.0194607
-0.0124466
-0.00585726
-0.00165028
0.000511009
0.00164176
0.00225801
0.00248261
0.00239056
0.00209957
0.00172042
0.00132207
0.000935678
0.000576119
0.000274907
-0.0826562
-0.056664
-0.0396352
-0.0320596
-0.0280052
-0.0222759
-0.0139286
-0.00637713
-0.00181744
0.000422301
0.00158914
0.0022317
0.00246532
0.00237529
0.00209154
0.00172589
0.00134005
0.000957557
0.000588377
0.000251706
-0.100488
-0.0654193
-0.0446483
-0.0354831
-0.0308022
-0.0243108
-0.0146811
-0.00625834
-0.00150412
0.00068727
0.0018059
0.0024145
0.00261151
0.0024888
0.00218583
0.00181372
0.001426
0.00103774
0.000653156
0.000278902
-0.119644
-0.0734299
-0.0491554
-0.0385235
-0.0335141
-0.0265837
-0.0157239
-0.0063777
-0.00137602
0.000811074
0.0019083
0.00249904
0.00267231
0.00252703
0.00221081
0.00183465
0.00144643
0.00105552
0.000662467
0.000267494
-0.12929
-0.075536
-0.0497822
-0.0386933
-0.0337821
-0.0270818
-0.0159678
-0.00631528
-0.00124247
0.00092035
0.00199198
0.00256287
0.00271729
0.00255652
0.00223073
0.00185012
0.00145958
0.00106585
0.000668462
0.000267088
)
;

boundaryField
{
    inlet
    {
        type            zeroGradient;
    }
    outlet
    {
        type            fixedValue;
        value           uniform 0;
    }
    upperWall
    {
        type            zeroGradient;
    }
    lowerWall
    {
        type            zeroGradient;
    }
    frontAndBack
    {
        type            empty;
    }
}


// ************************************************************************* //
