/*--------------------------------*- C++ -*----------------------------------*\
| =========                 |                                                 |
| \\      /  F ield         | OpenFOAM: The Open Source CFD Toolbox           |
|  \\    /   O peration     | Version:  v2012                                 |
|   \\  /    A nd           | Website:  www.openfoam.com                      |
|    \\/     M anipulation  |                                                 |
\*---------------------------------------------------------------------------*/
FoamFile
{
    version     2.0;
    format      ascii;
    class       surfaceScalarField;
    location    "67";
    object      phi;
}
// * * * * * * * * * * * * * * * * * * * * * * * * * * * * * * * * * * * * * //

dimensions      [0 3 -1 0 0 0 0];
oriented        oriented;


internalField   nonuniform List<scalar> 
3100
(
0.00124092
9.11341e-06
0.00123363
7.32154e-06
0.00122669
6.96328e-06
0.00121971
6.99875e-06
0.00121272
7.00939e-06
0.00120574
6.98883e-06
0.00119877
6.97315e-06
0.0011918
6.97347e-06
0.0011848
7.00486e-06
0.00117771
7.08505e-06
0.00117045
7.26034e-06
0.00116284
7.59951e-06
0.0011546
8.24014e-06
0.00114518
9.40892e-06
0.00113364
1.15231e-05
0.00111833
1.52903e-05
0.00109637
2.19525e-05
0.00106263
3.36891e-05
0.00100792
5.46464e-05
0.000100919
0.000907042
0.001252
7.13501e-06
0.00125257
6.7743e-06
0.0012532
6.3564e-06
0.00125375
6.46258e-06
0.00125421
6.56539e-06
0.00125459
6.61853e-06
0.00125489
6.67819e-06
0.0012551
6.77061e-06
0.00125519
6.92184e-06
0.0012551
7.17316e-06
0.00125476
7.61228e-06
0.00125397
8.384e-06
0.00125246
9.76052e-06
0.00124966
1.22079e-05
0.00124462
1.65661e-05
0.00123562
2.42802e-05
0.00121969
3.7873e-05
0.00119157
6.17557e-05
0.00114185
0.00010429
0.000184648
0.00105813
0.00125161
5.55434e-06
0.00125247
5.94544e-06
0.00125329
5.56304e-06
0.00125413
5.64394e-06
0.00125495
5.76547e-06
0.00125575
5.83263e-06
0.00125652
5.90937e-06
0.00125726
6.0323e-06
0.00125795
6.2417e-06
0.00125852
6.59424e-06
0.00125891
7.21727e-06
0.00125897
8.31544e-06
0.00125845
1.02789e-05
0.00125687
1.37697e-05
0.00125344
1.99888e-05
0.0012467
3.09988e-05
0.00123416
5.04092e-05
0.00121141
8.44652e-05
0.00117122
0.000144446
0.000251143
0.00110477
0.00125126
4.31357e-06
0.00125218
5.05376e-06
0.00125299
4.77266e-06
0.00125382
4.82471e-06
0.00125465
4.95163e-06
0.00125546
5.03168e-06
0.00125625
5.12269e-06
0.00125701
5.27327e-06
0.00125773
5.53233e-06
0.00125836
5.97636e-06
0.00125882
6.76245e-06
0.00125898
8.15473e-06
0.00125863
1.06428e-05
0.00125734
1.5071e-05
0.00125438
2.29545e-05
0.00124847
3.69074e-05
0.00123741
6.14678e-05
0.00121746
0.000104379
0.00118291
0.000178935
0.000306948
0.00112712
0.00125102
3.33132e-06
0.00125193
4.17375e-06
0.00125273
3.99778e-06
0.00125355
4.02567e-06
0.00125438
4.14602e-06
0.00125519
4.23145e-06
0.00125599
4.33267e-06
0.00125676
4.50284e-06
0.00125749
4.80367e-06
0.00125814
5.32375e-06
0.00125864
6.25245e-06
0.00125888
7.90151e-06
0.00125866
1.08557e-05
0.0012576
1.61161e-05
0.00125506
2.54873e-05
0.00124988
4.20721e-05
0.0012401
7.12399e-05
0.00122245
0.000122003
0.00119215
0.000209209
0.000355265
0.00114388
0.00125084
2.5083e-06
0.00125174
3.3022e-06
0.00125254
3.21008e-06
0.00125336
3.22526e-06
0.00125418
3.3342e-06
0.00125499
3.42529e-06
0.00125579
3.53789e-06
0.00125657
3.72958e-06
0.00125732
4.06796e-06
0.00125799
4.658e-06
0.00125855
5.71059e-06
0.00125887
7.58384e-06
0.00125881
1.09378e-05
0.00125802
1.6916e-05
0.00125595
2.75674e-05
0.0012516
4.64296e-05
0.00124325
7.95969e-05
0.00122803
0.000137205
0.00120174
0.000235446
0.000397267
0.00115976
0.00125073
1.81691e-06
0.00125159
2.46904e-06
0.0012524
2.43142e-06
0.00125321
2.44018e-06
0.00125403
2.53215e-06
0.00125485
2.62057e-06
0.00125565
2.73875e-06
0.00125644
2.94262e-06
0.0012572
3.30771e-06
0.00125791
3.94842e-06
0.00125851
5.09711e-06
0.00125894
7.14623e-06
0.00125905
1.08214e-05
0.00125857
1.73793e-05
0.00125704
2.90777e-05
0.00125364
4.98198e-05
0.00124689
8.63335e-05
0.00123433
0.000149751
0.00121218
0.000257573
0.000433481
0.00117602
0.00125065
1.18928e-06
0.00125149
1.64644e-06
0.0012523
1.63838e-06
0.00125311
1.64798e-06
0.00125393
1.72307e-06
0.00125474
1.80929e-06
0.00125556
1.93405e-06
0.00125635
2.15114e-06
0.00125713
2.53801e-06
0.00125787
3.22034e-06
0.00125854
4.44223e-06
0.00125907
6.62506e-06
0.00125937
1.05391e-05
0.00125923
1.75321e-05
0.00125831
3.00185e-05
0.00125594
5.21978e-05
0.00125097
9.13212e-05
0.00124129
0.000159416
0.00122349
0.000275335
0.000463907
0.00119309
0.0012506
6.24806e-07
0.00125143
8.55538e-07
0.00125224
8.57036e-07
0.00125304
8.68172e-07
0.00125386
9.22737e-07
0.00125468
9.98824e-07
0.0012555
1.12293e-06
0.00125631
1.34253e-06
0.00125711
1.73824e-06
0.00125788
2.43999e-06
0.00125861
3.7023e-06
0.00125926
5.96247e-06
0.00125976
1.00228e-05
0.00125999
1.72875e-05
0.00125971
3.02836e-05
0.00125846
5.34248e-05
0.00125539
9.43817e-05
0.00124882
0.000165968
0.00123565
0.000288487
0.00048844
0.00121117
0.00125058
6.62749e-08
0.00125139
5.85233e-08
0.00125221
6.09996e-08
0.00125301
7.68866e-08
0.00125383
1.12818e-07
0.00125466
1.81106e-07
0.00125548
3.06128e-07
0.0012563
5.28986e-07
0.00125712
9.28433e-07
0.00125793
1.63916e-06
0.00125873
2.91674e-06
0.00125949
5.20681e-06
0.00126021
9.32178e-06
0.00126082
1.66954e-05
0.00126121
2.99084e-05
0.00126114
5.3505e-05
0.00126009
9.5447e-05
0.00125683
0.000169222
0.0012486
0.000296691
0.000506635
0.00123044
0.00125058
-4.78252e-07
0.0012514
-7.25568e-07
0.00125221
-7.23485e-07
0.00125301
-7.05515e-07
0.00125384
-6.9201e-07
0.00125467
-6.38016e-07
0.0012555
-5.19805e-07
0.00125633
-3.04785e-07
0.00125717
8.45399e-08
0.00125801
7.81435e-07
0.00125888
2.03963e-06
0.00125977
4.3008e-06
0.0012607
8.37164e-06
0.0012617
1.56798e-05
0.00126278
2.88074e-05
0.00126393
5.23346e-05
0.00126498
9.43819e-05
0.00126522
0.000168965
0.00126231
0.00029959
0.000517967
0.00125103
0.0012506
-1.06154e-06
0.00125143
-1.53351e-06
0.00125224
-1.52071e-06
0.00125305
-1.50005e-06
0.00125388
-1.50669e-06
0.00125471
-1.46288e-06
0.00125554
-1.34947e-06
0.00125639
-1.14204e-06
0.00125725
-7.6789e-07
0.00125813
-9.60408e-08
0.00125906
1.11713e-06
0.00126007
3.30042e-06
0.00126122
7.23402e-06
0.0012626
1.43086e-05
0.00126438
2.70461e-05
0.00126676
4.99633e-05
0.00126998
9.11798e-05
0.00127388
0.000165053
0.0012767
0.000296754
0.000521552
0.00127315
0.00125065
-1.68042e-06
0.0012515
-2.34805e-06
0.00125231
-2.30754e-06
0.00125312
-2.29046e-06
0.00125395
-2.32122e-06
0.00125479
-2.29264e-06
0.00125563
-2.19188e-06
0.00125648
-2.00298e-06
0.00125736
-1.65731e-06
0.00125828
-1.03192e-06
0.00125928
1.03091e-07
0.0012604
2.15222e-06
0.00126176
5.85325e-06
0.00126352
1.25242e-05
0.00126597
2.45702e-05
0.00126958
4.63381e-05
0.00127497
8.57719e-05
0.00128269
0.000157318
0.00129172
0.000287709
0.000516345
0.001297
0.00125073
-2.39233e-06
0.0012516
-3.19941e-06
0.00125242
-3.10357e-06
0.00125323
-3.09338e-06
0.00125407
-3.14437e-06
0.00125491
-3.12525e-06
0.00125575
-3.03494e-06
0.00125662
-2.86461e-06
0.00125752
-2.55227e-06
0.00125847
-1.98405e-06
0.00125952
-9.5092e-07
0.00126076
9.18168e-07
0.00126231
4.29969e-06
0.00126443
1.04091e-05
0.00126753
2.14726e-05
0.00127232
4.15567e-05
0.00127987
7.82256e-05
0.0012915
0.000145686
0.00130726
0.000271937
0.00050081
0.00132284
0.00125085
-3.2137e-06
0.00125175
-4.06918e-06
0.00125256
-3.89162e-06
0.00125339
-3.89982e-06
0.00125422
-3.97204e-06
0.00125507
-3.96527e-06
0.00125592
-3.8921e-06
0.00125679
-3.74916e-06
0.00125771
-3.48095e-06
0.00125869
-2.98743e-06
0.0012598
-2.08365e-06
0.00126114
-4.42088e-07
0.00126288
2.53713e-06
0.00126533
7.93537e-06
0.00126903
1.77446e-05
0.00127493
3.5638e-05
0.00128457
6.85768e-05
0.00130014
0.000130098
0.00132319
0.000248867
0.000473089
0.001351
0.00125103
-4.21713e-06
0.00125195
-4.96747e-06
0.00125276
-4.68433e-06
0.00125359
-4.71876e-06
0.00125443
-4.80446e-06
0.00125528
-4.80522e-06
0.00125613
-4.74868e-06
0.00125702
-4.63444e-06
0.00125795
-4.41539e-06
0.00125896
-4.00651e-06
0.00126012
-3.25247e-06
0.00126154
-1.87654e-06
0.00126344
6.27974e-07
0.00126618
5.18253e-06
0.00127043
1.34898e-05
0.00127734
2.87186e-05
0.00128893
5.69851e-05
0.00130839
0.000110629
0.00133931
0.000217949
0.000430543
0.00138191
0.00125128
-5.46915e-06
0.0012522
-5.86928e-06
0.00125302
-5.48685e-06
0.00125386
-5.55632e-06
0.00125471
-5.64778e-06
0.00125555
-5.65658e-06
0.00125642
-5.62054e-06
0.0012573
-5.53989e-06
0.00125825
-5.37638e-06
0.00125928
-5.0635e-06
0.00126048
-4.47829e-06
0.00126198
-3.40191e-06
0.00126401
-1.43293e-06
0.001267
2.16477e-06
0.00127171
8.7584e-06
0.0012795
2.09093e-05
0.00129284
4.36416e-05
0.00131599
8.74626e-05
0.00135528
0.000178662
0.000369799
0.00141611
0.00125163
-7.07406e-06
0.0012525
-6.72004e-06
0.00125333
-6.30357e-06
0.00125418
-6.40327e-06
0.00125502
-6.48704e-06
0.00125585
-6.50096e-06
0.0012567
-6.48372e-06
0.00125758
-6.43496e-06
0.00125851
-6.32726e-06
0.00125953
-6.11442e-06
0.00126074
-5.70975e-06
0.00126226
-4.959e-06
0.00126438
-3.57829e-06
0.00126755
-1.03421e-06
0.00127262
3.66994e-06
0.00128111
1.2396e-05
0.0012959
2.88379e-05
0.00132238
6.09738e-05
0.00137041
0.000130646
0.000286026
0.00145428
0.00125202
-9.06961e-06
0.0012526
-7.28263e-06
0.00125323
-6.92773e-06
0.0012538
-6.96353e-06
0.00125428
-6.96811e-06
0.00125471
-6.93269e-06
0.00125509
-6.88223e-06
0.00125545
-6.81623e-06
0.00125582
-6.72086e-06
0.00125626
-6.57396e-06
0.00125685
-6.33188e-06
0.00125778
-5.91816e-06
0.00125936
-5.19206e-06
0.00126219
-3.89339e-06
0.00126722
-1.37937e-06
0.00127605
3.54487e-06
0.00129189
1.29797e-05
0.00132128
3.15781e-05
0.00137866
7.3281e-05
0.000172006
0.00149278
0.00124093
0.00123365
0.00122672
0.00121976
0.00121279
0.00120586
0.00119897
0.00119216
0.00118543
0.00117886
0.00117252
0.0011666
0.00116141
0.00115751
0.00115613
0.00115968
0.00117266
0.00120424
0.00127752
0.00144954
0.000834745
7.24121e-05
0.000792332
4.2366e-05
0.000761107
3.12804e-05
0.000738113
2.29387e-05
0.000721088
1.70808e-05
0.000707795
1.32454e-05
0.000697175
1.06672e-05
0.00068833
8.79175e-06
0.00068095
7.41608e-06
0.000674527
6.35807e-06
0.000668994
5.55952e-06
0.000664008
4.91038e-06
0.000659636
4.39395e-06
0.000655616
3.9365e-06
0.000652083
3.55656e-06
0.000648801
3.19807e-06
0.000645941
2.88864e-06
0.000643283
2.5804e-06
0.000641018
2.30541e-06
2.01901e-06
0.000638935
0.00100205
0.000128573
0.000967184
7.7187e-05
0.000943907
5.45723e-05
0.000928384
3.84051e-05
0.000918581
2.68982e-05
0.000912592
1.91869e-05
0.000909357
1.39221e-05
0.000907975
1.01378e-05
0.000908039
7.3831e-06
0.000909033
5.34235e-06
0.000910796
3.84322e-06
0.000912992
2.70803e-06
0.000915597
1.85174e-06
0.000918373
1.16515e-06
0.000921365
6.40375e-07
0.000924382
1.91875e-07
0.000927518
-1.6736e-07
0.000930599
-4.92059e-07
0.000933735
-7.54401e-07
-1.01479e-06
0.00093677
0.00106117
0.000172261
0.00103137
0.000106961
0.00101148
7.45058e-05
0.000997803
5.20575e-05
0.000988706
3.60409e-05
0.000982749
2.51193e-05
0.000979057
1.7652e-05
0.000976849
1.23126e-05
0.000975785
8.47252e-06
0.000975439
5.642e-06
0.000975699
3.59598e-06
0.000976297
2.05093e-06
0.000977248
9.04733e-07
0.000978387
-4.13269e-08
0.000979808
-7.79584e-07
0.000981347
-1.41671e-06
0.000983095
-1.91278e-06
0.000984914
-2.3749e-06
0.000986921
-2.74915e-06
-3.13716e-06
0.000988992
0.0010924
0.00020704
0.00106692
0.000132413
0.0010499
9.15339e-05
0.00103831
6.36058e-05
0.00103076
4.36014e-05
0.00102611
2.97344e-05
0.00102363
2.01392e-05
0.00102263
1.32877e-05
0.00102279
8.33819e-06
0.0010237
4.71106e-06
0.00102525
2.07422e-06
0.0010272
9.34267e-08
0.00102955
-1.40156e-06
0.00103208
-2.56781e-06
0.0010348
-3.45184e-06
0.00103756
-4.1689e-06
0.00104042
-4.71878e-06
0.00104324
-5.19224e-06
0.00104611
-5.56793e-06
-5.92912e-06
0.0010489
0.00111603
0.000234959
0.00109424
0.000154193
0.00107933
0.000106486
0.00106907
7.38472e-05
0.00106225
5.04588e-05
0.00105793
3.40339e-05
0.00105551
2.25907e-05
0.00105436
1.44154e-05
0.00105418
8.53373e-06
0.00105463
4.2322e-06
0.00105559
1.11824e-06
0.00105686
-1.2199e-06
0.00105841
-2.96187e-06
0.00106011
-4.31565e-06
0.00106198
-5.3262e-06
0.0010639
-6.14565e-06
0.00106593
-6.7636e-06
0.00106799
-7.29847e-06
0.00107013
-7.71524e-06
-8.12253e-06
0.00107229
0.00113774
0.000257022
0.00111947
0.000172449
0.00110656
0.000119399
0.00109761
8.27683e-05
0.00109162
5.64478e-05
0.00108785
3.77819e-05
0.0010858
2.4647e-05
0.00108494
1.52549e-05
0.001085
8.47608e-06
0.00108569
3.53404e-06
0.00108689
-7.09328e-08
0.00108843
-2.76665e-06
0.00109027
-4.77468e-06
0.00109226
-6.30688e-06
0.00109443
-7.45784e-06
0.00109665
-8.36243e-06
0.00109897
-9.05041e-06
0.00110129
-9.61651e-06
0.00110367
-1.00629e-05
-1.04715e-05
0.00110603
0.00115928
0.000273819
0.00114455
0.000187177
0.00113377
0.000130201
0.00112622
9.03117e-05
0.00112114
6.15548e-05
0.00111794
4.09814e-05
0.00111621
2.63946e-05
0.00111553
1.59278e-05
0.00111564
8.37318e-06
0.0011163
2.85343e-06
0.0011174
-1.16418e-06
0.00111877
-4.17142e-06
0.00112039
-6.39688e-06
0.00112213
-8.09014e-06
0.00112401
-9.34892e-06
0.00112594
-1.03323e-05
0.00112794
-1.1068e-05
0.00112996
-1.16684e-05
0.00113202
-1.21312e-05
-1.25544e-05
0.00113407
0.0011813
0.000285648
0.00117018
0.00019829
0.00116172
0.000138657
0.00115572
9.62923e-05
0.00115168
6.55933e-05
0.00114915
4.34879e-05
0.00114785
2.76909e-05
0.00114744
1.63274e-05
0.00114771
8.10089e-06
0.00114846
2.09192e-06
0.0011496
-2.30118e-06
0.001151
-5.57598e-06
0.00115262
-8.0065e-06
0.00115437
-9.8369e-06
0.00115625
-1.12042e-05
0.00115817
-1.22523e-05
0.00116017
-1.30414e-05
0.00116217
-1.36645e-05
0.00116422
-1.41499e-05
-1.45734e-05
0.00116625
0.00120413
0.000292732
0.0011967
0.000205732
0.00119076
0.00014462
0.00118648
0.000100569
0.00118362
6.8472e-05
0.00118189
4.52165e-05
0.0011811
2.84956e-05
0.00118101
1.64172e-05
0.00118146
7.65955e-06
0.00118229
1.24644e-06
0.00118344
-3.45325e-06
0.00118481
-6.95958e-06
0.00118635
-9.55438e-06
0.00118799
-1.15062e-05
0.00118973
-1.29559e-05
0.00119152
-1.40617e-05
0.00119335
-1.48842e-05
0.00119518
-1.55273e-05
0.00119704
-1.6018e-05
-1.6442e-05
0.00119889
0.00122805
0.000295152
0.00122438
0.000209401
0.00122113
0.000147863
0.00121875
0.000102936
0.00121722
6.99994e-05
0.0012164
4.60208e-05
0.00121621
2.86803e-05
0.0012165
1.61164e-05
0.00121717
6.98057e-06
0.00121812
2.83891e-07
0.00121932
-4.65514e-06
0.00122069
-8.32636e-06
0.00122218
-1.10484e-05
0.00122376
-1.30824e-05
0.00122541
-1.45961e-05
0.00122709
-1.57343e-05
0.0012288
-1.65809e-05
0.00123051
-1.7225e-05
0.00123223
-1.77159e-05
-1.81233e-05
0.00123392
0.00125327
0.000292949
0.00125348
0.000209213
0.00125311
0.000148246
0.00125279
0.000103252
0.00125272
7.0082e-05
0.00125292
4.58208e-05
0.00125341
2.82032e-05
0.00125414
1.5387e-05
0.00125508
6.04496e-06
0.00125618
-8.23998e-07
0.00125743
-5.90776e-06
0.00125879
-9.69439e-06
0.00126023
-1.2498e-05
0.00126174
-1.45989e-05
0.00126329
-1.61549e-05
0.00126486
-1.73264e-05
0.00126646
-1.81867e-05
0.00126806
-1.88391e-05
0.00126966
-1.93226e-05
-1.97198e-05
0.00127124
0.00128008
0.000286043
0.00128428
0.000205026
0.00128695
0.000145566
0.00128886
0.000101334
0.00129039
6.85468e-05
0.00129171
4.44866e-05
0.00129296
2.69456e-05
0.00129418
1.41514e-05
0.00129543
4.78329e-06
0.00129672
-2.11291e-06
0.00129804
-7.23988e-06
0.00129939
-1.1048e-05
0.00130077
-1.3874e-05
0.00130215
-1.59751e-05
0.00130353
-1.7532e-05
0.00130489
-1.86823e-05
0.00130624
-1.95237e-05
0.00130756
-2.0138e-05
0.00130884
-2.05878e-05
-2.09366e-05
0.00131007
0.00130876
0.000274308
0.00131712
0.000196689
0.00132301
0.000139686
0.00132729
9.70586e-05
0.00133052
6.53168e-05
0.00133305
4.1962e-05
0.0013351
2.48938e-05
0.00133685
1.24085e-05
0.00133841
3.22543e-06
0.00133987
-3.5731e-06
0.00134128
-8.65327e-06
0.00134267
-1.24407e-05
0.00134405
-1.52658e-05
0.00134545
-1.73753e-05
0.00134686
-1.89444e-05
0.00134827
-2.01036e-05
0.0013497
-2.09478e-05
0.00135111
-2.15552e-05
0.00135251
-2.19875e-05
-2.23052e-05
0.00135387
0.00133969
0.000257483
0.00135241
0.000183976
0.00136168
0.000130414
0.00136847
9.0264e-05
0.00137353
6.02462e-05
0.00137736
3.81183e-05
0.00138032
2.19217e-05
0.00138267
1.00477e-05
0.0013846
1.29025e-06
0.00138623
-5.22054e-06
0.00138764
-1.00691e-05
0.00138887
-1.36725e-05
0.00138994
-1.63464e-05
0.0013909
-1.83309e-05
0.00139174
-1.97899e-05
0.00139249
-2.08529e-05
0.00139316
-2.16085e-05
0.00139375
-2.21356e-05
0.00139427
-2.24924e-05
-2.27406e-05
0.00139472
0.0013733
0.00023522
0.00139065
0.000166646
0.00140344
0.000117622
0.00141281
8.08952e-05
0.00141971
5.33452e-05
0.00142479
3.30397e-05
0.00142855
1.81511e-05
0.00143143
7.17052e-06
0.00143375
-1.03771e-06
0.00143576
-7.23472e-06
0.00143758
-1.18968e-05
0.00143931
-1.53997e-05
0.00144099
-1.80349e-05
0.00144266
-2.00042e-05
0.00144433
-2.14622e-05
0.00144599
-2.25145e-05
0.00144763
-2.325e-05
0.00144922
-2.37327e-05
0.00145076
-2.40246e-05
-2.4177e-05
0.0014522
0.00141018
0.000206978
0.00143248
0.000144355
0.00144901
0.0001011
0.0014612
6.871e-05
0.00147021
4.43266e-05
0.00147683
2.64187e-05
0.00148163
1.33485e-05
0.00148502
3.76702e-06
0.00148734
-3.36469e-06
0.0014888
-8.70178e-06
0.00148959
-1.26884e-05
0.00148985
-1.56691e-05
0.00148971
-1.79013e-05
0.00148927
-1.95658e-05
0.0014886
-2.07947e-05
0.00148777
-2.16824e-05
0.00148682
-2.23034e-05
0.0014858
-2.27144e-05
0.00148475
-2.29673e-05
-2.31082e-05
0.00148368
0.00145107
0.000172048
0.00147853
0.00011692
0.00149854
8.10988e-05
0.00151303
5.42289e-05
0.00152351
3.38415e-05
0.00153116
1.87767e-05
0.00153698
7.52861e-06
0.00154176
-1.01686e-06
0.00154596
-7.56953e-06
0.00154982
-1.25607e-05
0.00155348
-1.63501e-05
0.00155703
-1.92191e-05
0.00156049
-2.13692e-05
0.00156387
-2.29494e-05
0.00156714
-2.40681e-05
0.00157027
-2.48111e-05
0.00157321
-2.52434e-05
0.00157591
-2.54229e-05
0.00157835
-2.53977e-05
-2.52167e-05
0.00158045
0.0014973
0.000129049
0.00153092
8.3328e-05
0.00155581
5.62242e-05
0.00157404
3.60092e-05
0.00158681
2.10775e-05
0.00159509
1.05007e-05
0.00159983
2.78778e-06
0.0016018
-2.99151e-06
0.00160158
-7.3477e-06
0.0015997
-1.06792e-05
0.00159659
-1.3237e-05
0.00159258
-1.52174e-05
0.00158797
-1.67561e-05
0.00158296
-1.79478e-05
0.00157775
-1.88597e-05
0.00157248
-1.95412e-05
0.00156726
-2.00315e-05
0.0015622
-2.03622e-05
0.00155737
-2.05633e-05
-2.06644e-05
0.00155281
0.00154428
7.75782e-05
0.00158035
4.72784e-05
0.00160672
2.98704e-05
0.001627
1.57322e-05
0.00164317
4.91807e-06
0.00165672
-3.04975e-06
0.00166853
-9.02039e-06
0.00167909
-1.35544e-05
0.00168877
-1.70275e-05
0.00169775
-1.96601e-05
0.00170614
-2.16215e-05
0.00171395
-2.30359e-05
0.00172119
-2.39973e-05
0.00172782
-2.45782e-05
0.0017338
-2.4837e-05
0.00173907
-2.48214e-05
0.00174362
-2.45734e-05
0.00174738
-2.41296e-05
0.00175034
-2.35243e-05
-2.27906e-05
0.00175247
0.00152712
0.0015744
0.00160428
0.00162001
0.00162493
0.00162188
0.00161286
0.00159931
0.00158228
0.00156262
0.00154099
0.00151796
0.00149396
0.00146938
0.00144454
0.00141972
0.00139515
0.00137102
0.0013475
0.00132471
0.000637237
1.75249e-06
0.000635733
1.46183e-06
0.000634625
1.17115e-06
0.000633767
8.37161e-07
0.000633384
4.42562e-07
0.000633558
-1.77877e-07
0.000634651
-1.0513e-06
0.000636769
-2.1128e-06
0.000640176
-3.38453e-06
0.000645133
-4.9419e-06
0.000652002
-6.85756e-06
0.000661285
-9.25234e-06
0.000673561
-1.22624e-05
0.000689694
-1.60945e-05
0.000710739
-2.10284e-05
0.000738274
-2.75118e-05
0.000774608
-3.63263e-05
0.000823641
-4.90419e-05
0.000893275
-6.96383e-05
-0.000107523
0.00100076
0.000939833
-1.24697e-06
0.000942799
-1.51395e-06
0.000945814
-1.7961e-06
0.000948802
-2.1652e-06
0.000951916
-2.63778e-06
0.000955037
-3.30741e-06
0.00095822
-4.212e-06
0.000961509
-5.4007e-06
0.000965069
-6.9392e-06
0.000969069
-8.94339e-06
0.000973749
-1.15668e-05
0.000979468
-1.50027e-05
0.000986657
-1.95282e-05
0.00099599
-2.55033e-05
0.00100833
-3.34749e-05
0.00102497
-4.42599e-05
0.00104784
-5.92827e-05
0.00107996
-8.12246e-05
0.00112652
-0.000116208
-0.000178219
0.00119722
0.000991252
-3.4831e-06
0.000993593
-3.88897e-06
0.000996144
-4.31292e-06
0.000998823
-4.86137e-06
0.00100175
-5.5336e-06
0.00100489
-6.44852e-06
0.00100834
-7.63784e-06
0.00101213
-9.19509e-06
0.0010164
-1.12001e-05
0.00102129
-1.38152e-05
0.00102697
-1.72368e-05
0.00103373
-2.17396e-05
0.00104192
-2.76998e-05
0.00105209
-3.56349e-05
0.00106494
-4.63097e-05
0.00108159
-6.08851e-05
0.00110363
-8.13017e-05
0.00113348
-0.000111079
0.00117471
-0.000157433
-0.000235414
0.00123185
0.00105171
-6.25043e-06
0.00105444
-6.61803e-06
0.00105718
-7.01764e-06
0.00105987
-7.54718e-06
0.00106259
-8.22632e-06
0.00106532
-9.17129e-06
0.00106814
-1.04384e-05
0.00107109
-1.21418e-05
0.00107429
-1.44019e-05
0.00107788
-1.74093e-05
0.00108203
-2.14258e-05
0.00108703
-2.67863e-05
0.00109324
-3.39843e-05
0.0011012
-4.36692e-05
0.00111162
-5.68274e-05
0.00112557
-7.49072e-05
0.00114448
-0.000100281
0.00117038
-0.00013701
0.00120562
-0.000192686
-0.000281634
0.00125183
0.00107453
-8.48137e-06
0.00107679
-8.90179e-06
0.00107915
-9.36021e-06
0.00108156
-9.9746e-06
0.00108412
-1.07594e-05
0.00108679
-1.18463e-05
0.00108966
-1.32957e-05
0.00109277
-1.5251e-05
0.00109622
-1.78516e-05
0.00110015
-2.13279e-05
0.00110471
-2.59826e-05
0.00111016
-3.22247e-05
0.00111682
-4.06356e-05
0.00112518
-5.20044e-05
0.00113586
-6.74933e-05
0.00114978
-8.88078e-05
0.00116814
-0.000118621
0.00119244
-0.000161305
0.00122407
-0.000224312
-0.00032041
0.0012628
0.00110842
-1.08396e-05
0.00111078
-1.12532e-05
0.00111318
-1.1722e-05
0.00111557
-1.23469e-05
0.00111801
-1.31691e-05
0.0011205
-1.43131e-05
0.0011231
-1.58657e-05
0.00112584
-1.79823e-05
0.00112883
-2.0838e-05
0.00113219
-2.46905e-05
0.00113608
-2.98966e-05
0.00114075
-3.69238e-05
0.00114651
-4.645e-05
0.00115383
-5.93778e-05
0.00116331
-7.70378e-05
0.00117577
-0.000101325
0.00119224
-0.00013513
0.00121381
-0.00018291
0.00124116
-0.000251684
-0.000352401
0.0012731
0.00113617
-1.29308e-05
0.00113826
-1.33606e-05
0.0011404
-1.38511e-05
0.00114256
-1.45155e-05
0.0011448
-1.53954e-05
0.00114711
-1.66262e-05
0.00114956
-1.83028e-05
0.00115218
-2.06013e-05
0.00115506
-2.37177e-05
0.00115831
-2.7944e-05
0.00116209
-3.36757e-05
0.00116662
-4.14437e-05
0.00117216
-5.20005e-05
0.00117915
-6.63591e-05
0.00118809
-8.59733e-05
0.00119966
-0.000112892
0.00121465
-0.000150108
0.00123378
-0.000202035
0.00125717
-0.00027508
-0.00037844
0.00128316
0.0011683
-1.49579e-05
0.00117033
-1.53821e-05
0.00117239
-1.58816e-05
0.00117445
-1.65529e-05
0.00117655
-1.74619e-05
0.00117869
-1.87367e-05
0.00118091
-2.04954e-05
0.00118326
-2.29239e-05
0.00118581
-2.62461e-05
0.00118866
-3.07813e-05
0.00119195
-3.69659e-05
0.00119588
-4.5383e-05
0.0012007
-5.68553e-05
0.00120679
-7.24803e-05
0.00121458
-9.3817e-05
0.00122464
-0.000123002
0.00123755
-0.000163072
0.00125373
-0.000218264
0.00127292
-0.00029434
-0.000398918
0.00129331
0.00120075
-1.68201e-05
0.0012026
-1.72404e-05
0.00120446
-1.77377e-05
0.00120632
-1.84165e-05
0.00120821
-1.93442e-05
0.00121013
-2.06575e-05
0.00121213
-2.24825e-05
0.00121423
-2.50202e-05
0.0012165
-2.85127e-05
0.00121903
-3.33056e-05
0.00122192
-3.98667e-05
0.00122536
-4.88261e-05
0.00122955
-6.10593e-05
0.00123479
-7.77375e-05
0.00124144
-0.000100485
0.00124992
-0.000131499
0.00126061
-0.000173783
0.00127369
-0.000231361
0.00128867
-0.000309335
-0.000414007
0.00130371
0.00123561
-1.84894e-05
0.00123727
-1.88869e-05
0.00123892
-1.93706e-05
0.00124055
-2.00321e-05
0.00124219
-2.09572e-05
0.00124383
-2.22763e-05
0.00124551
-2.41336e-05
0.00124726
-2.67364e-05
0.00124913
-3.03476e-05
0.00125118
-3.53331e-05
0.00125353
-4.21878e-05
0.00125629
-5.15792e-05
0.00125966
-6.44225e-05
0.00126385
-8.1938e-05
0.00126912
-0.00010579
0.00127576
-0.000138188
0.00128399
-0.000182067
0.00129375
-0.000241194
0.00130441
-0.000320081
-0.000423941
0.00131425
0.00127281
-2.00642e-05
0.00127435
-2.04397e-05
0.00127587
-2.08939e-05
0.00127737
-2.15291e-05
0.00127885
-2.24259e-05
0.0012803
-2.37251e-05
0.00128175
-2.55716e-05
0.00128321
-2.81848e-05
0.0012847
-3.18369e-05
0.00128629
-3.69103e-05
0.00128802
-4.39196e-05
0.00128998
-5.35567e-05
0.00129231
-6.67684e-05
0.00129515
-8.48039e-05
0.00129868
-0.000109352
0.00130306
-0.000142606
0.00130837
-0.000187413
0.00131442
-0.000247284
0.00132051
-0.000326214
-0.000428545
0.00132506
0.00131127
-2.12395e-05
0.00131241
-2.15631e-05
0.00131351
-2.19744e-05
0.00131456
-2.25605e-05
0.00131557
-2.34189e-05
0.00131655
-2.46795e-05
0.0013175
-2.65014e-05
0.00131844
-2.91023e-05
0.00131941
-3.27656e-05
0.00132041
-3.78815e-05
0.0013215
-4.49729e-05
0.00132273
-5.47479e-05
0.00132414
-6.81553e-05
0.00132582
-8.64581e-05
0.00132779
-0.000111324
0.00133009
-0.000144912
0.00133261
-0.000189952
0.00133502
-0.00024973
0.00133657
-0.000327823
-0.000427892
0.00133585
0.0013552
-2.25643e-05
0.00135647
-2.28294e-05
0.00135766
-2.31682e-05
0.00135877
-2.36666e-05
0.00135978
-2.44221e-05
0.00136068
-2.55644e-05
0.00136144
-2.72532e-05
0.00136206
-2.97063e-05
0.00136252
-3.32096e-05
0.00136281
-3.81552e-05
0.00136291
-4.50696e-05
0.00136283
-5.46651e-05
0.00136256
-6.78947e-05
0.00136211
-8.602e-05
0.00136146
-0.000110694
0.00136055
-0.000144027
0.00135921
-0.000188642
0.00135707
-0.000247611
0.00135336
-0.000324161
-0.000421376
0.00134681
0.00139511
-2.29339e-05
0.00139544
-2.31379e-05
0.00139571
-2.3419e-05
0.00139592
-2.38623e-05
0.00139608
-2.45644e-05
0.00139619
-2.56523e-05
0.00139624
-2.72838e-05
0.00139622
-2.96716e-05
0.00139613
-3.30968e-05
0.00139594
-3.79407e-05
0.00139562
-4.47169e-05
0.0013951
-5.41149e-05
0.00139429
-6.70564e-05
0.00139306
-8.47563e-05
0.0013912
-0.000108802
0.00138842
-0.000141217
0.0013843
-0.000184507
0.00137829
-0.000241587
0.00136957
-0.000315455
-0.000408714
0.0013569
0.00145352
-2.42486e-05
0.00145468
-2.42963e-05
0.00145566
-2.43905e-05
0.00145642
-2.46084e-05
0.00145691
-2.50476e-05
0.0014571
-2.58268e-05
0.00145692
-2.71004e-05
0.00145634
-2.90707e-05
0.00145526
-3.20095e-05
0.00145362
-3.6285e-05
0.00145131
-4.23938e-05
0.00144821
-5.10099e-05
0.00144419
-6.30301e-05
0.00143908
-7.96454e-05
0.00143268
-0.000102399
0.00142471
-0.000133247
0.00141478
-0.000174577
0.0014023
-0.00022911
0.0013864
-0.000299569
-0.000387927
0.00136559
0.00148263
-2.31878e-05
0.00148159
-2.3259e-05
0.0014806
-2.33854e-05
0.00147964
-2.364e-05
0.00147871
-2.41137e-05
0.00147782
-2.49181e-05
0.00147692
-2.61976e-05
0.001476
-2.81402e-05
0.001475
-3.09968e-05
0.00147382
-3.51043e-05
0.00147235
-4.09147e-05
0.00147038
-4.90351e-05
0.00146763
-6.02722e-05
0.00146368
-7.56901e-05
0.00145796
-9.66712e-05
0.0014497
-0.00012498
0.00143793
-0.000162797
0.00142148
-0.000212657
0.00139904
-0.00027713
-0.000357693
0.00136881
0.0015822
-2.49274e-05
0.00158352
-2.4583e-05
0.00158438
-2.42415e-05
0.00158472
-2.39715e-05
0.00158447
-2.38536e-05
0.00158354
-2.39886e-05
0.00158186
-2.45031e-05
0.00157929
-2.55625e-05
0.00157569
-2.73879e-05
0.00157086
-3.02764e-05
0.00156458
-3.4632e-05
0.00155655
-4.10013e-05
0.00154639
-5.01221e-05
0.00153367
-6.29772e-05
0.00151784
-8.0854e-05
0.00149824
-0.000105391
0.00147402
-0.000138583
0.00144402
-0.000182675
0.00140672
-0.00023985
-0.000310628
0.00135965
0.00154859
-2.06982e-05
0.00154471
-2.07025e-05
0.00154119
-2.07222e-05
0.00153804
-2.08116e-05
0.00153523
-2.10381e-05
0.00153274
-2.14852e-05
0.00153051
-2.22605e-05
0.00152846
-2.35024e-05
0.00152647
-2.53933e-05
0.00152438
-2.81756e-05
0.00152192
-3.21707e-05
0.00151872
-3.78052e-05
0.00151423
-4.56388e-05
0.00150763
-5.63958e-05
0.00149775
-7.09915e-05
0.00148288
-9.05459e-05
0.00146064
-0.000116372
0.00142787
-0.000149936
0.00138086
-0.000192869
-0.0002459
0.0013161
0.00175374
-2.19612e-05
0.00175411
-2.10703e-05
0.00175355
-2.01537e-05
0.00175199
-1.92513e-05
0.00174938
-1.84081e-05
0.00174558
-1.76763e-05
0.00174045
-1.71195e-05
0.00173378
-1.6816e-05
0.00172527
-1.68661e-05
0.0017145
-1.73999e-05
0.00170092
-1.85869e-05
0.00168377
-2.06495e-05
0.001662
-2.38764e-05
0.00163422
-2.86372e-05
0.0015986
-3.53945e-05
0.00155274
-4.47066e-05
0.00149355
-5.72198e-05
0.00141724
-7.36749e-05
0.00131932
-9.5e-05
-0.000126503
0.00119989
0.00130275
0.00128168
0.00126153
0.00124228
0.00122388
0.0012062
0.00118909
0.00117228
0.00115542
0.00113802
0.00111943
0.00109878
0.0010749
0.00104626
0.00101085
0.000966134
0.000908898
0.000835204
0.000740189
0.00061368
0.0011117
-0.000110898
0.00116991
-5.81238e-05
0.00120341
-3.34177e-05
0.00122046
-1.69928e-05
0.00122677
-6.25094e-06
0.00122656
2.51777e-07
0.00122265
3.9459e-06
0.0012167
5.99366e-06
0.00120977
6.99053e-06
0.00120242
7.383e-06
0.00119496
7.47139e-06
0.00118755
7.40204e-06
0.00118026
7.26777e-06
0.0011731
7.10897e-06
0.00116608
6.96277e-06
0.00115917
6.82861e-06
0.00115242
6.70445e-06
0.00114587
6.52195e-06
0.0011398
6.11254e-06
3.18367e-06
0.00128221
-0.000195618
0.00133236
-0.000107882
0.00136378
-6.43845e-05
0.00138295
-3.56867e-05
0.00139384
-1.66651e-05
0.00139917
-4.61038e-06
0.00140093
2.63269e-06
0.00140071
6.63511e-06
0.00139954
8.55821e-06
0.00139794
9.29433e-06
0.00139619
9.42364e-06
0.00139444
9.24715e-06
0.00139277
8.93422e-06
0.00139118
8.57743e-06
0.00138966
8.24117e-06
0.00138821
7.944e-06
0.00138683
7.68424e-06
0.00138557
7.37235e-06
0.0013847
6.66976e-06
3.46389e-06
0.00130676
-0.000270585
0.00135373
-0.000154875
0.00138316
-9.38636e-05
0.00140148
-5.40772e-05
0.00141221
-2.74805e-05
0.00141791
-1.03949e-05
0.0014205
-3.89298e-08
0.00142138
5.68536e-06
0.00142144
8.44452e-06
0.00142117
9.52266e-06
0.0014208
9.75066e-06
0.00142045
9.55069e-06
0.0014202
9.16683e-06
0.00142003
8.72494e-06
0.00141995
8.31755e-06
0.00141993
7.96278e-06
0.00142001
7.65345e-06
0.00142018
7.26245e-06
0.00142052
6.39396e-06
3.11521e-06
0.00131818
-0.000336794
0.00136162
-0.000198083
0.0013888
-0.000120769
0.00140574
-7.0729e-05
0.00141568
-3.7117e-05
0.00142089
-1.53148e-05
0.0014232
-2.06279e-06
0.00142396
5.2158e-06
0.00142403
8.66589e-06
0.00142382
9.96473e-06
0.00142356
1.018e-05
0.00142336
9.85815e-06
0.00142327
9.30013e-06
0.00142328
8.67502e-06
0.00142338
8.09338e-06
0.00142357
7.59026e-06
0.00142384