/*--------------------------------*- C++ -*----------------------------------*\
| =========                 |                                                 |
| \\      /  F ield         | OpenFOAM: The Open Source CFD Toolbox           |
|  \\    /   O peration     | Version:  v2012                                 |
|   \\  /    A nd           | Website:  www.openfoam.com                      |
|    \\/     M anipulation  |                                                 |
\*---------------------------------------------------------------------------*/
FoamFile
{
    version     2.0;
    format      ascii;
    class       volVectorField;
    location    "67";
    object      U;
}
// * * * * * * * * * * * * * * * * * * * * * * * * * * * * * * * * * * * * * //

dimensions      [0 1 -1 0 0 0 0];


internalField   nonuniform List<vector> 
1600
(
(0.994639 0.00100926 0)
(0.989762 0.00107388 0)
(0.984218 0.00108361 0)
(0.97854 0.00111608 0)
(0.972926 0.00113945 0)
(0.967362 0.00115244 0)
(0.961824 0.0011606 0)
(0.956299 0.00116693 0)
(0.95077 0.0011736 0)
(0.945204 0.00118344 0)
(0.939543 0.00120119 0)
(0.933687 0.00123461 0)
(0.927459 0.00129751 0)
(0.920543 0.0014138 0)
(0.912383 0.00162592 0)
(0.901996 0.00200772 0)
(0.88767 0.00268872 0)
(0.866374 0.00390259 0)
(0.833309 0.00610433 0)
(0.771722 0.0112583 0)
(1.00068 0.00170851 0)
(1.00178 0.00168956 0)
(1.00238 0.00159591 0)
(1.00278 0.00159378 0)
(1.00316 0.00159656 0)
(1.00352 0.00159184 0)
(1.00383 0.00158851 0)
(1.00408 0.00159125 0)
(1.00426 0.00160359 0)
(1.00432 0.00163205 0)
(1.00423 0.00168907 0)
(1.00386 0.00179665 0)
(1.00306 0.00199453 0)
(1.00148 0.00235261 0)
(0.998576 0.00299462 0)
(0.993331 0.00413521 0)
(0.983991 0.00614649 0)
(0.967448 0.00968222 0)
(0.938894 0.0159833 0)
(0.883861 0.0285415 0)
(1.00055 0.00125425 0)
(1.00155 0.00121283 0)
(1.00233 0.00109463 0)
(1.00296 0.00109374 0)
(1.0036 0.00111053 0)
(1.00427 0.00112206 0)
(1.00493 0.00113754 0)
(1.00559 0.00116314 0)
(1.00621 0.00120414 0)
(1.00678 0.00127096 0)
(1.00724 0.00138394 0)
(1.0075 0.00157934 0)
(1.00741 0.00192265 0)
(1.00671 0.00252935 0)
(1.00489 0.00360396 0)
(1.00114 0.00550202 0)
(0.993951 0.00884051 0)
(0.980732 0.0146948 0)
(0.957619 0.025042 0)
(0.913612 0.0439116 0)
(1.00042 0.000977594 0)
(1.00129 0.00108947 0)
(1.00206 0.00104788 0)
(1.00271 0.00107903 0)
(1.00336 0.00111799 0)
(1.00403 0.00114333 0)
(1.00471 0.00116738 0)
(1.00538 0.00120029 0)
(1.00603 0.0012508 0)
(1.00663 0.00133377 0)
(1.00713 0.00147671 0)
(1.00746 0.00172801 0)
(1.00748 0.00217434 0)
(1.00694 0.00296839 0)
(1.00542 0.00438019 0)
(1.00214 0.00687978 0)
(0.995817 0.0112822 0)
(0.984169 0.0189949 0)
(0.96405 0.0324949 0)
(0.926642 0.0560892 0)
(1.00034 0.000755016 0)
(1.00109 0.000908647 0)
(1.00184 0.000867538 0)
(1.0025 0.000870265 0)
(1.00314 0.000887894 0)
(1.00381 0.000898709 0)
(1.00449 0.000913143 0)
(1.00517 0.000942208 0)
(1.00583 0.000996094 0)
(1.00644 0.00109249 0)
(1.00697 0.00126456 0)
(1.00734 0.00157134 0)
(1.00744 0.00211875 0)
(1.00704 0.00309381 0)
(1.00576 0.00482719 0)
(1.00292 0.00789373 0)
(0.99735 0.0132846 0)
(0.987044 0.0226828 0)
(0.969315 0.0389129 0)
(0.936576 0.0664209 0)
(1.00027 0.000574325 0)
(1.00094 0.000734643 0)
(1.00167 0.000712401 0)
(1.00234 0.000718579 0)
(1.00299 0.000744229 0)
(1.00366 0.000766827 0)
(1.00434 0.000793721 0)
(1.00502 0.000836172 0)
(1.00569 0.000905993 0)
(1.00631 0.00102378 0)
(1.00687 0.00122803 0)
(1.0073 0.00158728 0)
(1.00748 0.0022244 0)
(1.00724 0.00335639 0)
(1.00625 0.00536694 0)
(1.0039 0.00892293 0)
(0.99919 0.0151705 0)
(0.99035 0.026031 0)
(0.975058 0.0446143 0)
(0.946413 0.0754683 0)
(1.00023 0.000422376 0)
(1.00083 0.000564317 0)
(1.00155 0.000553839 0)
(1.00222 0.00055699 0)
(1.00287 0.00057717 0)
(1.00354 0.000595986 0)
(1.00422 0.000619839 0)
(1.00491 0.00066067 0)
(1.00558 0.000732129 0)
(1.00623 0.000857593 0)
(1.00682 0.00108014 0)
(1.0073 0.00147638 0)
(1.00759 0.00218359 0)
(1.00754 0.00344457 0)
(1.00686 0.00568884 0)
(1.00508 0.00966396 0)
(1.00134 0.0166528 0)
(0.994131 0.0287891 0)
(0.981458 0.0494447 0)
(0.956829 0.0832832 0)
(1.00021 0.000289932 0)
(1.00076 0.00039878 0)
(1.00146 0.000395474 0)
(1.00213 0.000398074 0)
(1.00279 0.000415534 0)
(1.00346 0.000435153 0)
(1.00414 0.000462371 0)
(1.00484 0.000508545 0)
(1.00552 0.000588175 0)
(1.00619 0.000726437 0)
(1.00681 0.00096965 0)
(1.00736 0.00140049 0)
(1.00776 0.00216722 0)
(1.00791 0.00353283 0)
(1.00758 0.00596334 0)
(1.00642 0.0102722 0)
(1.00375 0.0178579 0)
(0.998333 0.0310433 0)
(0.988477 0.0534647 0)
(0.967985 0.0899678 0)
(1.00019 0.000170076 0)
(1.00072 0.000237262 0)
(1.00141 0.000236897 0)
(1.00208 0.000239434 0)
(1.00273 0.000253219 0)
(1.00341 0.000271535 0)
(1.0041 0.000299184 0)
(1.0048 0.000346532 0)
(1.00549 0.000428663 0)
(1.00618 0.000572237 0)
(1.00684 0.000825982 0)
(1.00746 0.00127698 0)
(1.00798 0.00208149 0)
(1.00834 0.0035173 0)
(1.00839 0.00607787 0)
(1.0079 0.010628 0)
(1.00638 0.0186615 0)
(1.00289 0.0326697 0)
(0.996049 0.0565686 0)
(0.979939 0.0954791 0)
(1.00018 5.72497e-05 0)
(1.0007 7.8416e-05 0)
(1.00138 7.8331e-05 0)
(1.00205 8.11947e-05 0)
(1.00271 9.12387e-05 0)
(1.00339 0.000108014 0)
(1.00408 0.000136139 0)
(1.00478 0.000184717 0)
(1.00549 0.000269034 0)
(1.0062 0.000416589 0)
(1.0069 0.000677348 0)
(1.00759 0.00114066 0)
(1.00823 0.00196709 0)
(1.00882 0.00344288 0)
(1.00927 0.0060782 0)
(1.00948 0.0107722 0)
(1.00917 0.01909 0)
(1.00772 0.0336695 0)
(1.0041 0.0587282 0)
(0.992727 0.0997791 0)
(1.00018 -5.33682e-05 0)
(1.0007 -7.95772e-05 0)
(1.00138 -8.03311e-05 0)
(1.00206 -7.71077e-05 0)
(1.00272 -7.10245e-05 0)
(1.00339 -5.63044e-05 0)
(1.00409 -2.85328e-05 0)
(1.0048 1.98144e-05 0)
(1.00552 0.000103767 0)
(1.00625 0.000250905 0)
(1.00699 0.000511252 0)
(1.00775 0.000974414 0)
(1.00852 0.00180164 0)
(1.00933 0.00328139 0)
(1.01019 0.0059298 0)
(1.01112 0.0106628 0)
(1.01207 0.0190915 0)
(1.01277 0.0339754 0)
(1.01256 0.059854 0)
(1.00639 0.10276 0)
(1.00019 -0.00016626 0)
(1.00072 -0.000238381 0)
(1.00141 -0.000238814 0)
(1.00209 -0.000235354 0)
(1.00275 -0.00023332 0)
(1.00343 -0.00022081 0)
(1.00413 -0.000193822 0)
(1.00485 -0.000146502 0)
(1.00558 -6.43279e-05 0)
(1.00633 7.99199e-05 0)
(1.00711 0.000335059 0)
(1.00794 0.000788848 0)
(1.00884 0.00159946 0)
(1.00987 0.00305082 0)
(1.01114 0.00565329 0)
(1.01279 0.0103198 0)
(1.01502 0.0186781 0)
(1.01794 0.0335754 0)
(1.02135 0.059886 0)
(1.02098 0.104293 0)
(1.00021 -0.000286217 0)
(1.00077 -0.000399742 0)
(1.00147 -0.00039711 0)
(1.00215 -0.000393855 0)
(1.00281 -0.000396073 0)
(1.00349 -0.000386158 0)
(1.00419 -0.000361196 0)
(1.00492 -0.000317128 0)
(1.00566 -0.000240269 0)
(1.00644 -0.000104568 0)
(1.00725 0.000136752 0)
(1.00815 0.00056746 0)
(1.00917 0.00133914 0)
(1.01043 0.00272472 0)
(1.01209 0.00521726 0)
(1.01446 0.00970666 0)
(1.01796 0.0178042 0)
(1.02316 0.0324028 0)
(1.03036 0.0587053 0)
(1.03656 0.104169 0)
(1.00023 -0.000418761 0)
(1.00084 -0.000565043 0)
(1.00156 -0.000555063 0)
(1.00223 -0.000552517 0)
(1.0029 -0.000558215 0)
(1.00358 -0.000549269 0)
(1.00429 -0.000524402 0)
(1.00502 -0.000481316 0)
(1.00578 -0.000407559 0)
(1.00657 -0.000279012 0)
(1.00742 -5.24762e-05 0)
(1.00838 0.000349968 0)
(1.00952 0.00106924 0)
(1.01099 0.00236051 0)
(1.01303 0.00468712 0)
(1.01608 0.0088935 0)
(1.02083 0.0165356 0)
(1.02831 0.0304933 0)
(1.03947 0.0562597 0)
(1.05321 0.102163 0)
(1.00028 -0.000570956 0)
(1.00095 -0.000735174 0)
(1.00169 -0.000713247 0)
(1.00236 -0.00071404 0)
(1.00302 -0.000726334 0)
(1.00371 -0.000723635 0)
(1.00442 -0.000706478 0)
(1.00516 -0.000673421 0)
(1.00593 -0.000612913 0)
(1.00674 -0.000503004 0)
(1.00762 -0.000304755 0)
(1.00864 5.20094e-05 0)
(1.00989 0.000694642 0)
(1.01154 0.0018546 0)
(1.01394 0.00395436 0)
(1.01763 0.00777133 0)
(1.02357 0.0147646 0)
(1.0333 0.0277267 0)
(1.04853 0.0523554 0)
(1.07103 0.0978821 0)
(1.00034 -0.000751888 0)
(1.00109 -0.000908968 0)
(1.00185 -0.000868024 0)
(1.00252 -0.000865801 0)
(1.00318 -0.000871485 0)
(1.00388 -0.000860018 0)
(1.00459 -0.000836041 0)
(1.00533 -0.00079967 0)
(1.00611 -0.000740968 0)
(1.00694 -0.000640904 0)
(1.00785 -0.000465704 0)
(1.00892 -0.000154529 0)
(1.01026 0.000403357 0)
(1.01209 0.00140903 0)
(1.01479 0.00323254 0)
(1.01906 0.00656093 0)
(1.0261 0.0127079 0)
(1.03798 0.0242801 0)
(1.05733 0.0470179 0)
(1.09014 0.0909736 0)
(1.00043 -0.000974857 0)
(1.0013 -0.00108947 0)
(1.00208 -0.00104776 0)
(1.00274 -0.00107447 0)
(1.0034 -0.00110324 0)
(1.0041 -0.00111005 0)
(1.00482 -0.00110257 0)
(1.00556 -0.00108219 0)
(1.00634 -0.00104129 0)
(1.00718 -0.00096486 0)
(1.00812 -0.000825799 0)
(1.00923 -0.000574653 0)
(1.01065 -0.000120851 0)
(1.01263 0.00070247 0)
(1.0156 0.0022021 0)
(1.02037 0.00495414 0)
(1.02836 0.0100808 0)
(1.04223 0.0198904 0)
(1.0656 0.0399054 0)
(1.1107 0.0806845 0)
(1.00056 -0.00125156 0)
(1.00157 -0.00121182 0)
(1.00235 -0.00109305 0)
(1.00299 -0.0010882 0)
(1.00365 -0.00109668 0)
(1.00434 -0.00109367 0)
(1.00506 -0.00108501 0)
(1.00579 -0.0010703 0)
(1.00656 -0.00104255 0)
(1.00739 -0.00098964 0)
(1.00833 -0.000890496 0)
(1.00945 -0.000707137 0)
(1.01091 -0.000370158 0)
(1.01298 0.000249598 0)
(1.01615 0.00138881 0)
(1.02131 0.0034884 0)
(1.03009 0.00742168 0)
(1.04568 0.0150558 0)
(1.0728 0.0312843 0)
(1.1328 0.066451 0)
(1.00069 -0.00170609 0)
(1.00179 -0.00168789 0)
(1.0024 -0.00159356 0)
(1.00282 -0.00158854 0)
(1.00322 -0.0015857 0)
(1.0036 -0.00157157 0)
(1.00396 -0.00155304 0)
(1.0043 -0.00153093 0)
(1.00464 -0.00150134 0)
(1.00501 -0.00145716 0)
(1.00546 -0.00138562 0)
(1.00609 -0.00126364 0)
(1.00709 -0.00104874 0)
(1.00878 -0.000661227 0)
(1.0118 6.49414e-05 0)
(1.01707 0.00144235 0)
(1.02633 0.00406003 0)
(1.0433 0.00919887 0)
(1.0739 0.0205144 0)
(1.15293 0.0465773 0)
(0.994643 -0.00100805 0)
(0.989775 -0.00107286 0)
(0.984241 -0.00108231 0)
(0.978577 -0.0011137 0)
(0.972982 -0.00113501 0)
(0.967448 -0.00114462 0)
(0.961961 -0.0011474 0)
(0.956527 -0.00114512 0)
(0.951162 -0.00113743 0)
(0.945894 -0.00112264 0)
(0.940776 -0.00109694 0)
(0.935904 -0.00105291 0)
(0.931456 -0.000976459 0)
(0.927764 -0.000841124 0)
(0.925433 -0.000580251 0)
(0.925847 -5.90462e-05 0)
(0.931587 0.000968535 0)
(0.947734 0.00304675 0)
(0.982911 0.00785847 0)
(1.09826 0.020086 0)
(0.702305 0.0274614 4.52663e-19)
(0.644331 0.0569176 -6.63351e-18)
(0.61031 0.0916823 0)
(0.585319 0.127964 0)
(0.561391 0.164176 0)
(0.537247 0.199875 0)
(0.512648 0.234893 -1.42899e-18)
(0.487061 0.268934 1.28436e-17)
(0.460008 0.301672 1.15016e-17)
(0.431247 0.332816 0)
(0.400687 0.362119 -1.47205e-18)
(0.368328 0.389347 1.33172e-17)
(0.334222 0.414285 0)
(0.298482 0.436736 -1.27037e-18)
(0.261246 0.456529 1.27939e-18)
(0.222693 0.47351 -1.17653e-17)
(0.183014 0.487558 5.76236e-18)
(0.142432 0.498568 -3.63387e-19)
(0.101173 0.506467 3.64856e-19)
(0.0594884 0.511197 0)
(0.826323 0.0587583 3.50415e-19)
(0.77724 0.109185 1.97493e-18)
(0.743359 0.164133 -2.3058e-19)
(0.71535 0.218457 0)
(0.687296 0.271375 -4.05079e-18)
(0.657943 0.322731 8.27958e-18)
(0.626988 0.372384 0)
(0.593978 0.420093 -9.78219e-18)
(0.558513 0.465581 -1.71319e-17)
(0.520405 0.508567 2.13224e-18)
(0.479606 0.548786 -9.40631e-18)
(0.436171 0.585976 1.04838e-18)
(0.39021 0.619889 -1.04646e-18)
(0.341897 0.650294 7.37577e-18)
(0.291441 0.676984 -7.29054e-18)
(0.239085 0.699771 5.03109e-19)
(0.185103 0.718508 -4.56735e-18)
(0.129791 0.733064 0)
(0.0734455 0.743331 1.91372e-18)
(0.0163914 0.74923 0)
(0.867732 0.0755967 -1.01268e-20)
(0.826285 0.123434 -1.94632e-19)
(0.79576 0.175601 -2.19316e-19)
(0.769889 0.227816 4.37721e-19)
(0.743766 0.279632 3.74028e-18)
(0.715982 0.330934 -7.66028e-18)
(0.686088 0.381433 0)
(0.653599 0.430712 0)
(0.618096 0.478339 6.87762e-18)
(0.579375 0.523886 9.64881e-19)
(0.537381 0.566959 -6.49043e-19)
(0.492172 0.607175 9.56159e-19)
(0.443872 0.644182 9.41885e-19)
(0.39268 0.677651 -7.89877e-21)
(0.338835 0.707325 -9.32396e-19)
(0.282621 0.732931 3.58474e-18)
(0.224336 0.754232 0)
(0.164327 0.771023 0)
(0.102954 0.783145 -1.81015e-18)
(0.0406088 0.790474 0)
(0.888427 0.0882849 -2.95594e-19)
(0.852469 0.134844 1.76914e-19)
(0.82416 0.187575 -1.85836e-19)
(0.798869 0.242106 4.06511e-19)
(0.772528 0.297256 -3.27244e-18)
(0.743784 0.352401 -4.28458e-19)
(0.712239 0.406887 6.81196e-18)
(0.677551 0.460054 0)
(0.639442 0.511316 0)
(0.59782 0.560157 0)
(0.552722 0.606134 7.14408e-18)
(0.504292 0.648841 -8.61935e-19)
(0.452754 0.687944 8.60077e-19)
(0.398348 0.723126 0)
(0.341337 0.754088 0)
(0.282035 0.780593 -7.01639e-18)
(0.220774 0.802446 -2.7657e-18)
(0.157922 0.819478 0)
(0.0938494 0.831563 -9.88035e-20)
(0.0289506 0.838607 9.85048e-20)
(0.903914 0.0992958 -2.64291e-19)
(0.872247 0.144986 0)
(0.845854 0.197392 0)
(0.82126 0.252175 0)
(0.795273 0.30774 6.17055e-18)
(0.766693 0.363322 0)
(0.735141 0.418244 -6.59746e-18)
(0.700317 0.471851 0)
(0.661976 0.523573 0)
(0.62002 0.572911 7.10854e-18)
(0.574473 0.619427 -1.61324e-18)
(0.525473 0.662737 7.01649e-18)
(0.473177 0.702475 -5.35125e-18)
(0.417816 0.738313 -7.54898e-21)
(0.359654 0.769959 -1.15958e-18)
(0.299006 0.797143 3.89288e-18)
(0.23621 0.819634 -1.99369e-19)
(0.171643 0.837235 1.2524e-18)
(0.105689 0.84979 1.84179e-19)
(0.0387596 0.85718 3.49451e-19)
(0.918341 0.109084 2.56059e-19)
(0.890395 0.154287 1.4889e-19)
(0.865864 0.206422 1.08824e-18)
(0.841993 0.261563 2.98469e-18)
(0.81626 0.317976 -6.01446e-18)
(0.787578 0.374781 7.28076e-19)
(0.755535 0.431206 -7.37994e-19)
(0.719858 0.486501 0)
(0.680343 0.540003 5.77162e-18)
(0.636933 0.591128 -6.12662e-18)
(0.589696 0.639367 0)
(0.538824 0.684277 -6.02786e-18)
(0.484521 0.725441 5.95281e-18)
(0.427066 0.762503 -2.04105e-18)
(0.366768 0.795154 -7.05826e-19)
(0.30398 0.82312 0)
(0.239068 0.846176 1.89979e-19)
(0.172434 0.864135 -1.3916e-18)
(0.10448 0.876854 1.27717e-18)
(0.03563 0.884229 -3.38301e-19)
(0.932909 0.117724 -2.27978e-19)
(0.908424 0.162902 -1.36551e-19)
(0.885812 0.215088 -2.19934e-18)
(0.86279 0.270773 -2.56445e-18)
(0.837391 0.328109 2.66897e-18)
(0.808699 0.386049 2.56001e-18)
(0.776334 0.443706 0)
(0.740078 0.500246 2.61322e-18)
(0.699795 0.554952 -1.08456e-17)
(0.655475 0.607208 0)
(0.607232 0.656501 -6.68702e-19)
(0.555238 0.70236 6.66266e-19)
(0.499724 0.744388 -2.51066e-18)
(0.440971 0.782231 3.31265e-18)
(0.37929 0.815577 2.11217e-18)
(0.315031 0.844148 -3.14814e-19)
(0.248563 0.867713 2.56021e-18)
(0.180286 0.886076 1.16137e-18)
(0.110608 0.899085 -1.31737e-18)
(0.03996 0.906624 7.40698e-20)
(0.94803 0.125304 3.78337e-19)
(0.926904 0.170864 5.9807e-20)
(0.906302 0.223452 1.10364e-18)
(0.884278 0.279906 -2.16974e-18)
(0.859311 0.338337 2.93203e-19)
(0.830654 0.397578 -4.87595e-19)
(0.797965 0.456658 0)
(0.761064 0.514686 -1.93199e-18)
(0.719865 0.570899 3.86425e-18)
(0.674396 0.624641 -3.43566e-18)
(0.624798 0.67537 -6.05681e-19)
(0.571269 0.722581 -5.89937e-19)
(0.514066 0.765851 1.37929e-18)
(0.453496 0.804803 -5.78937e-19)
(0.389897 0.839105 -2.64591e-18)
(0.323645 0.86847 3.92006e-21)
(0.255135 0.892656 2.75786e-19)
(0.184789 0.911466 -1.12781e-18)
(0.113037 0.924744 0)
(0.0403324 0.93238 0)
(0.963909 0.131787 -4.54006e-19)
(0.946134 0.178098 5.48977e-20)
(0.927642 0.231456 9.25089e-19)
(0.906761 0.288958 1.85697e-18)
(0.882324 0.348714 2.26048e-18)
(0.853747 0.409457 -2.23589e-18)
(0.820747 0.470126 -5.39754e-19)
(0.783198 0.529766 2.60787e-18)
(0.741075 0.587563 -2.0564e-18)
(0.694459 0.642819 4.52448e-18)
(0.643533 0.694963 0)
(0.588525 0.743471 -1.97511e-18)
(0.529719 0.787909 2.16203e-18)
(0.46744 0.82789 5.01184e-19)
(0.402045 0.863078 1.6126e-18)
(0.333923 0.893181 -4.87097e-19)
(0.263482 0.917955 2.41074e-19)
(0.191154 0.937197 -8.79512e-19)
(0.117383 0.950752 -3.73835e-19)
(0.0426312 0.958503 -5.69748e-20)
(0.980696 0.13713 3.24412e-19)
(0.966344 0.184532 -3.38941e-19)
(0.95007 0.239041 -1.11923e-18)
(0.93046 0.297908 2.24395e-19)
(0.906642 0.359254 -1.94501e-18)
(0.878185 0.421726 0)
(0.844876 0.484183 1.7813e-18)
(0.806651 0.54561 -2.25421e-19)
(0.763548 0.605148 2.30575e-19)
(0.715703 0.662064 0)
(0.663349 0.715765 -4.56223e-19)
(0.606738 0.765708 4.0492e-18)
(0.546182 0.811443 4.38187e-19)
(0.482033 0.852573 -7.65825e-21)
(0.41467 0.88875 -6.66373e-19)
(0.344501 0.919675 2.05839e-19)
(0.271955 0.945099 -2.05422e-19)
(0.197484 0.964817 8.53494e-19)
(0.121548 0.978671 4.18237e-19)
(0.0446286 0.986542 -1.74878e-19)
(0.998539 0.141233 -2.97895e-19)
(0.987758 0.19006 4.27344e-19)
(0.973822 0.24612 -9.52342e-20)
(0.955596 0.306704 -1.95961e-19)
(0.932476 0.369941 4.00268e-19)
(0.904167 0.434406 -1.70408e-18)
(0.870536 0.498881 -3.22922e-18)
(0.83159 0.562295 -1.72755e-18)
(0.787433 0.623751 1.71605e-18)
(0.73827 0.682497 0)
(0.684356 0.737896 0)
(0.625984 0.789402 -1.25399e-18)
(0.563496 0.836549 -3.72037e-19)
(0.497267 0.878926 9.48916e-19)
(0.4277 0.916175 -1.16917e-18)
(0.355227 0.947988 1.23556e-18)
(0.2803 0.974108 -6.00745e-19)
(0.203394 0.994323 5.83842e-19)
(0.124992 1.00847 2.44352e-19)
(0.0455981 1.01644 2.08751e-19)
(1.0176 0.143969 1.61795e-19)
(1.01062 0.194568 0)
(0.999161 0.25261 -6.13083e-19)
(0.98242 0.315307 -1.66106e-19)
(0.960058 0.380774 1.69907e-19)
(0.931911 0.447527 1.45923e-18)
(0.897937 0.514268 1.78651e-18)
(0.858229 0.579872 -1.19466e-18)
(0.812977 0.643393 -3.29176e-19)
(0.762472 0.704067 0)
(0.707005 0.761223 0)
(0.64692 0.814312 2.97184e-19)
(0.582592 0.862863 -7.75745e-21)
(0.514422 0.906461 -2.54477e-18)
(0.442835 0.944749 0)
(0.368277 0.97742 -2.70705e-19)
(0.291212 1.00422 5.82113e-19)
(0.212125 1.02494 -5.65887e-19)
(0.13151 1.03941 -2.74895e-19)
(0.049875 1.04751 0)
(1.03806 0.14514 -9.99394e-20)
(1.03522 0.197894 3.56459e-20)
(1.0264 0.258398 6.00544e-19)
(1.01122 0.323657 0)
(0.989654 0.391748 0)
(0.961649 0.46114 0)
(0.927249 0.530479 -2.577e-19)
(0.88662 0.5986 1.41172e-18)
(0.840021 0.664536 0)
(0.787801 0.72751 0)
(0.730295 0.786822 -7.74955e-19)
(0.667888 0.841905 5.19731e-19)
(0.600998 0.892257 2.1867e-19)
(0.530064 0.937441 1.16378e-18)
(0.455555 0.977079 -1.04932e-19)
(0.377958 1.01085 -9.93142e-19)
(0.297782 1.03848 0)
(0.215553 1.05976 0)
(0.131808 1.07452 0)
(0.0470929 1.08265 0)
(1.06016 0.144528 6.52706e-20)
(1.06189 0.199872 2.10795e-19)
(1.05589 0.263391 0)
(1.04236 0.331713 -4.66522e-19)
(1.02162 0.402836 1.05079e-19)
(0.993779 0.475166 0)
(0.959019 0.547258 0)
(0.917646 0.617873 5.55144e-19)
(0.870055 0.686005 0)
(0.816687 0.750898 0)
(0.757904 0.811886 3.05405e-19)
(0.694124 0.868429 -7.14133e-19)
(0.625771 0.920055 0)
(0.553288 0.96635 1.20853e-19)
(0.477132 1.00695 -1.20647e-19)
(0.397781 1.04156 0)
(0.315729 1.06989 0)
(0.231493 1.09173 0)
(0.145604 1.1069 -1.01843e-20)
(0.0586065 1.11528 1.01789e-20)
(1.08415 0.141762 -2.44842e-20)
(1.09105 0.200236 -1.82709e-19)
(1.0881 0.26745 1.33704e-19)
(1.07621 0.339487 5.80719e-19)
(1.05615 0.414314 0)
(1.02815 0.490381 0)
(0.992389 0.566238 0)
(0.949217 0.640635 -7.52282e-19)
(0.899125 0.712536 0)
(0.842665 0.781047 1.29032e-19)
(0.78032 0.845426 4.27565e-19)
(0.712607 0.905053 5.46728e-20)
(0.640054 0.959392 4.82145e-20)
(0.563198 1.00799 -7.82626e-21)
(0.482589 1.05045 -2.39514e-20)
(0.398789 1.08645 -5.4354e-20)
(0.31237 1.11574 0)
(0.223916 1.13811 3.42785e-20)
(0.134019 1.1534 -4.16908e-20)
(0.0432726 1.16153 0)
(1.1104 0.136488 0)
(1.12325 0.198749 1.3505e-19)
(1.12364 0.270367 -9.33868e-20)
(1.11357 0.346472 -2.5402e-19)
(1.09461 0.4248 9.76902e-21)
(1.06731 0.503692 5.04604e-20)
(1.0321 0.581607 -3.16346e-20)
(0.989491 0.657318 2.03156e-19)
(0.940073 0.730016 1.13644e-20)
(0.884218 0.799047 -1.31266e-19)
(0.822393 0.863846 0)
(0.755052 0.923899 -3.84194e-19)
(0.682656 0.97874 3.65752e-19)
(0.605676 1.02795 1.817e-19)
(0.5246 1.07115 0)
(0.439936 1.10799 3.70627e-20)
(0.35222 1.13818 0)
(0.262012 1.16145 -3.34172e-20)
(0.169898 1.17759 5.19729e-20)
(0.0764811 1.18644 -1.12639e-20)
(1.13935 0.128012 -1.33086e-20)
(1.1591 0.195152 -9.10579e-20)
(1.16278 0.272839 -6.6312e-20)
(1.15356 0.355506 4.91245e-21)
(1.13367 0.441099 -1.46675e-19)
(1.10374 0.527965 4.9947e-21)
(1.06423 0.614306 0)
(1.01597 0.698573 0)
(0.95997 0.779439 -8.93278e-20)
(0.896938 0.85589 8.88013e-20)
(0.827581 0.927185 -6.58522e-19)
(0.752571 0.992706 -5.25616e-19)
(0.672559 1.05195 -6.86633e-19)
(0.588183 1.10449 -5.59572e-19)
(0.500071 1.15 6.1177e-20)
(0.40885 1.18822 4.75954e-19)
(0.315146 1.21892 0)
(0.219585 1.24196 -2.17077e-19)
(0.122798 1.25724 -9.09444e-20)
(0.0254126 1.26473 -2.08222e-20)
(1.17165 0.115576 2.47185e-20)
(1.2001 0.187844 -6.80396e-21)
(1.20895 0.269174 0)
(1.20395 0.352368 4.9615e-20)
(1.18873 0.435971 3.99111e-19)
(1.16404 0.519091 3.64056e-19)
(1.13026 0.60055 1.72972e-19)
(1.08803 0.679565 -1.72959e-19)
(1.0378 0.75564 -6.71357e-19)
(0.980173 0.828147 4.15517e-19)
(0.915683 0.89648 4.25936e-19)
(0.844862 0.960063 9.10499e-19)
(0.768233 1.01836 6.76501e-19)
(0.686334 1.07087 1.21816e-19)
(0.599718 1.11714 3.81716e-19)
(0.508967 1.15673 -1.14481e-18)
(0.41469 1.18927 -3.13072e-19)
(0.317528 1.21444 2.892e-19)
(0.21815 1.23196 -1.22626e-19)
(0.117251 1.24163 -8.44791e-20)
(1.20406 0.0985987 -1.80153e-20)
(1.24006 0.185987 0)
(1.24735 0.288622 -1.92658e-19)
(1.23553 0.395402 0)
(1.21063 0.503319 -4.05639e-19)
(1.1741 0.610204 -2.51712e-19)
(1.12677 0.713754 6.50864e-19)
(1.0697 0.812365 2.54184e-19)
(1.00411 0.904897 -7.14147e-20)
(0.931066 0.990675 -4.64063e-19)
(0.851483 1.06916 7.43319e-19)
(0.766218 1.13993 0)
(0.676079 1.20265 -5.13568e-19)
(0.581837 1.25711 -7.82379e-19)
(0.484231 1.30313 -7.93372e-19)
(0.383977 1.3406 1.51536e-18)
(0.281765 1.36948 -2.82065e-19)
(0.178269 1.38977 -4.11931e-19)
(0.0741473 1.40149 1.47444e-19)
(-0.0299591 1.40475 7.52125e-20)
(1.17635 0.0520448 0)
(1.24041 0.110359 0)
(1.26767 0.180805 1.96351e-19)
(1.27232 0.255498 -4.93522e-19)
(1.2636 0.332174 3.61987e-19)
(1.24362 0.409483 6.07442e-19)
(1.21294 0.486218 -1.52437e-18)
(1.17256 0.561071 0)
(1.12352 0.633109 -4.66097e-19)
(1.0667 0.701514 2.98206e-19)
(1.00289 0.765539 -8.16886e-19)
(0.932819 0.824519 5.32925e-19)
(0.857217 0.877873 -1.09039e-18)
(0.776825 0.925096 9.05409e-19)
(0.692392 0.965765 2.67741e-18)
(0.604676 0.999535 -9.7702e-19)
(0.514438 1.02614 -1.0669e-19)
(0.422445 1.04541 1.14861e-18)
(0.329454 1.05723 8.07588e-20)
(0.236212 1.06159 -8.21623e-20)
(0.0176172 0.512725 7.06421e-19)
(-0.0241834 0.511037 -2.85832e-18)
(-0.065674 0.506144 4.97319e-18)
(-0.106607 0.498092 6.31592e-21)
(-0.146759 0.486961 1.18968e-17)
(-0.185919 0.472916 -1.08953e-17)
(-0.224055 0.456311 -1.99254e-19)
(-0.26108 0.437344 0)
(-0.296969 0.416227 0)
(-0.331763 0.393191 -1.02575e-17)
(-0.365579 0.368441 -1.2683e-18)
(-0.398646 0.342179 -8.49083e-18)
(-0.431318 0.314567 1.18979e-18)
(-0.46413 0.285721 -1.13225e-17)
(-0.49784 0.255674 1.83823e-18)
(-0.533528 0.224341 -5.19668e-19)
(-0.572748 0.191473 3.77274e-18)
(-0.617899 0.156599 3.28477e-18)
(-0.673058 0.119033 -8.57424e-20)
(-0.750696 0.0777779 -2.12122e-19)
(-0.0410525 0.750704 -3.66112e-19)
(-0.0985522 0.747729 -2.1956e-18)
(-0.155788 0.740308 6.95962e-19)
(-0.212435 0.728483 -4.61103e-19)
(-0.268185 0.712333 -3.99952e-18)
(-0.322722 0.691978 7.74111e-18)
(-0.375698 0.667444 -6.31301e-18)
(-0.426859 0.638901 -8.53278e-18)
(-0.475979 0.606547 8.60188e-19)
(-0.522873 0.570612 7.68808e-18)
(-0.567415 0.531334 -8.29229e-19)
(-0.60956 0.488971 7.36842e-18)
(-0.649367 0.443775 5.31595e-18)
(-0.687045 0.396002 5.4468e-18)
(-0.722991 0.345891 6.33155e-18)
(-0.757884 0.293668 -2.33224e-18)
(-0.792814 0.239549 2.49884e-18)
(-0.829545 0.18381 -2.41127e-18)
(-0.871094 0.127122 -9.24122e-19)
(-0.923318 0.0712338 -5.48533e-20)
(-0.0223261 0.792925 1.07792e-19)
(-0.0854487 0.790449 1.63988e-18)
(-0.148376 0.783029 -3.71204e-18)
(-0.210711 0.770696 4.2348e-21)
(-0.272075 0.753513 9.84495e-19)
(-0.332084 0.731597 -4.07715e-19)
(-0.390383 0.705096 0)
(-0.446628 0.674218 3.24581e-19)
(-0.500511 0.639212 6.00342e-18)
(-0.551765 0.600389 0)
(-0.60019 0.558085 -6.48561e-18)
(-0.645678 0.512673 -4.87489e-18)
(-0.688234 0.464547 -1.11814e-17)
(-0.728018 0.41412 -5.89898e-18)
(-0.765388 0.36182 6.53616e-19)
(-0.800981 0.308088 1.53751e-19)
(-0.835824 0.253421 -2.33115e-18)
(-0.871529 0.19847 0)
(-0.910702 0.144471 9.63668e-19)
(-0.956551 0.0940752 1.20725e-19)
(-0.0363908 0.840551 -3.7596e-19)
(-0.101774 0.837369 -1.89885e-19)
(-0.166817 0.829066 3.28542e-18)
(-0.231121 0.815686 -3.69531e-19)
(-0.294308 0.797303 6.22354e-18)
(-0.355984 0.774042 7.17989e-19)
(-0.415783 0.746061 5.50163e-18)
(-0.473351 0.713576 5.05683e-18)
(-0.528379 0.676843 -5.66224e-18)
(-0.580599 0.636171 4.54453e-18)
(-0.629812 0.591897 6.10009e-18)
(-0.675904 0.544395 3.37348e-19)
(-0.718871 0.494062 5.14486e-18)
(-0.758854 0.441326 4.3691e-18)
(-0.796177 0.38665 2.7886e-18)
(-0.831417 0.330557 1.60257e-19)
(-0.865494 0.273691 0)
(-0.899797 0.216963 0)
(-0.936453 0.161991 0)
(-0.976905 0.111871 -1.59184e-19)
(-0.0287389 0.859324 1.11208e-19)
(-0.09638 0.856177 1.27013e-18)
(-0.163751 0.847732 -3.44666e-19)
(-0.230422 0.834023 6.83383e-19)
(-0.295975 0.815121 -3.11806e-18)
(-0.359982 0.791153 0)
(-0.422042 0.762289 -5.38938e-18)
(-0.481767 0.728761 4.93348e-18)
(-0.538813 0.690852 0)
(-0.592882 0.648905 -4.48413e-18)
(-0.643743 0.603306 -6.05317e-19)
(-0.691257 0.554488 9.32637e-18)
(-0.735394 0.502925 5.57453e-19)
(-0.77627 0.449138 -1.08268e-18)
(-0.81418 0.393704 -3.34047e-18)
(-0.849661 0.33728 1.76552e-18)
(-0.88356 0.280678 1.69062e-18)
(-0.9171 0.224995 0)
(-0.95204 0.171983 0)
(-0.988843 0.124628 0)
(-0.0336974 0.886195 3.33533e-19)
(-0.103067 0.882724 -2.53435e-18)
(-0.172058 0.873823 3.10455e-19)
(-0.24023 0.859541 -2.67103e-18)
(-0.307159 0.839963 -2.62299e-18)
(-0.372415 0.815229 2.99788e-19)
(-0.435593 0.78552 2.8223e-18)
(-0.496302 0.751082 -5.35737e-18)
(-0.554201 0.712206 4.3059e-18)
(-0.608994 0.669245 0)
(-0.660453 0.622597 -5.31605e-19)
(-0.70844 0.572708 -7.79776e-18)
(-0.75292 0.520072 0)
(-0.793996 0.465242 0)
(-0.831937 0.408844 1.91216e-18)
(-0.867231 0.351613 2.07566e-19)
(-0.900628 0.29447 -3.31043e-18)
(-0.933166 0.238647 -6.50521e-19)
(-0.966249 0.185975 5.47878e-19)
(-0.999753 0.139273 0)
(-0.0312276 0.908619 2.04485e-19)
(-0.102504 0.905031 2.20526e-18)
(-0.173427 0.89586 -1.2056e-18)
(-0.243533 0.881149 2.30594e-18)
(-0.312375 0.860985 4.75748e-19)
(-0.379495 0.835507 -1.49474e-18)
(-0.444464 0.804907 -2.71233e-18)
(-0.506868 0.76944 0)
(-0.566342 0.729417 -4.19993e-18)
(-0.622565 0.685213 0)
(-0.675285 0.637257 0)
(-0.724335 0.586041 3.87626e-18)
(-0.76965 0.532116 0)
(-0.811295 0.47611 -4.16295e-19)
(-0.849494 0.418745 2.11989e-19)
(-0.884673 0.360869 1.90232e-19)
(-0.917493 0.303523 1.43184e-18)
(-0.94884 0.24804 6.31621e-19)
(-0.979863 0.196231 -6.75982e-20)
(-1.01018 0.150615 9.06616e-20)
(-0.0328749 0.9343 -2.05042e-19)
(-0.106117 0.930474 -1.11923e-18)
(-0.17893 0.920909 1.03797e-18)
(-0.250838 0.905658 2.06579e-18)
(-0.321379 0.884818 -2.54962e-20)
(-0.390084 0.858541 1.96618e-18)
(-0.456514 0.82703 1.71478e-18)
(-0.520248 0.790553 -1.67591e-18)
(-0.580912 0.749434 0)
(-0.638174 0.704064 4.20675e-19)
(-0.691773 0.654891 -8.25613e-19)
(-0.741524 0.602435 1.04603e-20)
(-0.787337 0.547283 1.8173e-18)
(-0.829248 0.490111 -3.57898e-19)
(-0.867435 0.431706 -9.23862e-19)
(-0.902263 0.372994 -1.02223e-18)
(-0.934296 0.315103 -1.48347e-19)
(-0.964281 0.259429 4.62402e-19)
(-0.993153 0.207748 -4.53015e-19)
(-1.02045 0.162328 -1.6345e-19)
(-0.0326345 0.960375 -5.48954e-20)
(-0.107932 0.956335 5.4794e-20)
(-0.18278 0.946391 -2.10875e-19)
(-0.256686 0.930595 -1.56495e-18)
(-0.329166 0.909048 1.74036e-18)
(-0.399735 0.881907 3.95431e-19)
(-0.467932 0.849384 -2.06289e-18)
(-0.533315 0.811758 3.03709e-18)
(-0.595486 0.769368 -1.36774e-18)
(-0.654087 0.722628 0)
(-0.708828 0.672015 -1.28296e-18)
(-0.759489 0.618085 -1.23403e-18)
(-0.805945 0.561478 -1.07471e-18)
(-0.848184 0.502933 -6.10731e-19)
(-0.886332 0.443313 1.39497e-18)
(-0.920688 0.383631 2.23848e-18)
(-0.951733 0.325099 0)
(-0.980108 0.269159 -4.51289e-19)
(-1.0066 0.217528 -1.33904e-19)
(-1.03084 0.172237 -4.04008e-21)
(-0.0327925 0.988358 0)
(-0.110217 0.984086 -3.32759e-19)
(-0.187149 0.973735 1.75961e-19)
(-0.26308 0.957363 -8.07473e-19)
(-0.337512 0.935075 0)
(-0.409945 0.907033 -1.19672e-18)
(-0.4799 0.873458 -1.16307e-18)
(-0.546919 0.834638 -2.4963e-18)
(-0.610581 0.790927 1.33073e-18)
(-0.670506 0.742757 -1.05639e-18)
(-0.726372 0.690631 9.68981e-19)
(-0.777926 0.63514 1.47941e-18)
(-0.825001 0.57697 0)
(-0.867536 0.516918 0)
(-0.905599 0.455913 0)
(-0.939416 0.395046 -1.5692e-18)
(-0.969384 0.335593 1.4083e-19)
(-0.996048 0.279034 -1.96069e-19)
(-1.02009 0.227035 5.07717e-20)
(-1.04129 0.181454 4.41154e-20)
(-0.034282 1.01814 0)
(-0.114129 1.01356 2.50666e-19)
(-0.193423 1.0027 4.32803e-19)
(-0.271636 0.98563 1.23823e-18)
(-0.348246 0.962463 -1.32308e-19)
(-0.422733 0.933372 1.29401e-18)
(-0.494594 0.898589 2.55193e-19)
(-0.563347 0.858418 1.09662e-18)
(-0.628544 0.813232 8.10408e-19)
(-0.689778 0.763484 1.25017e-18)
(-0.746696 0.709702 -2.21811e-19)
(-0.799009 0.652511 0)
(-0.846509 0.592634 0)
(-0.889089 0.530915 -1.79369e-19)
(-0.926764 0.468343 2.5835e-19)
(-0.959697 0.406072 1.0775e-18)
(-0.988216 0.345446 -2.4857e-19)
(-1.0128 0.287991 8.52636e-20)
(-1.03407 0.235355 1.78871e-19)
(-1.05203 0.189284 3.82282e-20)
(-0.0322632 1.04918 0)
(-0.114378 1.04436 0)
(-0.19594 1.03309 -8.36478e-19)
(-0.276408 1.0154 -7.05822e-19)
(-0.355245 0.99142 -9.94452e-20)
(-0.431912 0.96131 1.84108e-19)
(-0.505882 0.925308 1.24528e-18)
(-0.576644 0.883721 0)
(-0.643714 0.836937 -7.88881e-19)
(-0.706644 0.785425 -1.53977e-19)
(-0.765034 0.72975 2.98923e-19)
(-0.818542 0.670576 -7.10945e-19)
(-0.866896 0.608683 5.3186e-19)
(-0.909919 0.544984 -1.17792e-19)
(-0.947545 0.480543 1.68962e-19)
(-0.979855 0.416593 -5.06871e-19)
(-1.00709 0.354543 -4.57402e-20)
(-1.02966 0.295959 8.92004e-20)
(-1.04814 0.242472 -7.5408e-20)
(-1.06284 0.195746 -2.79077e-20)
(-0.0380386 1.08409 -1.83567e-20)
(-0.12303 1.0788 1.83358e-20)
(-0.207321 1.06682 2.72825e-19)
(-0.290351 1.04823 3.89283e-19)
(-0.371558 1.02314 0)
(-0.450384 0.991756 0)
(-0.526283 0.95432 -2.90908e-19)
(-0.598724 0.911158 -2.4267e-19)